 Entering Gaussian System, Link 0=g09
 Initial command:
 /share/apps/gaussian/g09d01/nehalem/g09/l1.exe "/mnt/beegfs/tmpdir/218893/Gau-73445.inp" -scrdir="/mnt/beegfs/tmpdir/218893/"
 Entering Link 1 = /share/apps/gaussian/g09d01/nehalem/g09/l1.exe PID=     73446.
  
 Copyright (c) 1988,1990,1992,1993,1995,1998,2003,2009,2013,
            Gaussian, Inc.  All Rights Reserved.
  
 This is part of the Gaussian(R) 09 program.  It is based on
 the Gaussian(R) 03 system (copyright 2003, Gaussian, Inc.),
 the Gaussian(R) 98 system (copyright 1998, Gaussian, Inc.),
 the Gaussian(R) 94 system (copyright 1995, Gaussian, Inc.),
 the Gaussian 92(TM) system (copyright 1992, Gaussian, Inc.),
 the Gaussian 90(TM) system (copyright 1990, Gaussian, Inc.),
 the Gaussian 88(TM) system (copyright 1988, Gaussian, Inc.),
 the Gaussian 86(TM) system (copyright 1986, Carnegie Mellon
 University), and the Gaussian 82(TM) system (copyright 1983,
 Carnegie Mellon University). Gaussian is a federally registered
 trademark of Gaussian, Inc.
  
 This software contains proprietary and confidential information,
 including trade secrets, belonging to Gaussian, Inc.
  
 This software is provided under written license and may be
 used, copied, transmitted, or stored only in accord with that
 written license.
  
 The following legend is applicable only to US Government
 contracts under FAR:
  
                    RESTRICTED RIGHTS LEGEND
  
 Use, reproduction and disclosure by the US Government is
 subject to restrictions as set forth in subparagraphs (a)
 and (c) of the Commercial Computer Software - Restricted
 Rights clause in FAR 52.227-19.
  
 Gaussian, Inc.
 340 Quinnipiac St., Bldg. 40, Wallingford CT 06492
  
  
 ---------------------------------------------------------------
 Warning -- This program may not be used in any manner that
 competes with the business of Gaussian, Inc. or will provide
 assistance to any competitor of Gaussian, Inc.  The licensee
 of this program is prohibited from giving any competitor of
 Gaussian, Inc. access to this program.  By using this program,
 the user acknowledges that Gaussian, Inc. is engaged in the
 business of creating and licensing software in the field of
 computational chemistry and represents and warrants to the
 licensee that it is not a competitor of Gaussian, Inc. and that
 it will not use this program in any manner prohibited above.
 ---------------------------------------------------------------
  

 Cite this work as:
 Gaussian 09, Revision D.01,
 M. J. Frisch, G. W. Trucks, H. B. Schlegel, G. E. Scuseria, 
 M. A. Robb, J. R. Cheeseman, G. Scalmani, V. Barone, B. Mennucci, 
 G. A. Petersson, H. Nakatsuji, M. Caricato, X. Li, H. P. Hratchian, 
 A. F. Izmaylov, J. Bloino, G. Zheng, J. L. Sonnenberg, M. Hada, 
 M. Ehara, K. Toyota, R. Fukuda, J. Hasegawa, M. Ishida, T. Nakajima, 
 Y. Honda, O. Kitao, H. Nakai, T. Vreven, J. A. Montgomery, Jr., 
 J. E. Peralta, F. Ogliaro, M. Bearpark, J. J. Heyd, E. Brothers, 
 K. N. Kudin, V. N. Staroverov, T. Keith, R. Kobayashi, J. Normand, 
 K. Raghavachari, A. Rendell, J. C. Burant, S. S. Iyengar, J. Tomasi, 
 M. Cossi, N. Rega, J. M. Millam, M. Klene, J. E. Knox, J. B. Cross, 
 V. Bakken, C. Adamo, J. Jaramillo, R. Gomperts, R. E. Stratmann, 
 O. Yazyev, A. J. Austin, R. Cammi, C. Pomelli, J. W. Ochterski, 
 R. L. Martin, K. Morokuma, V. G. Zakrzewski, G. A. Voth, 
 P. Salvador, J. J. Dannenberg, S. Dapprich, A. D. Daniels, 
 O. Farkas, J. B. Foresman, J. V. Ortiz, J. Cioslowski, 
 and D. J. Fox, Gaussian, Inc., Wallingford CT, 2013.
 
 ******************************************
 Gaussian 09:  ES64L-G09RevD.01 24-Apr-2013
                25-Jan-2017 
 ******************************************
 %Chk=n3_t555_mp2_6-31g_eint
 %NProcShared=10
 Will use up to   10 processors via shared memory.
 %Mem=27Gb
 -------------------------------------------------------------
 #P mp2 Gen integral=ultrafine cachesize=131072 counterpoise=2
 -------------------------------------------------------------
 1/4=131072,38=1,62=2/1;
 2/4=131072,12=2,17=6,18=5,40=1/2;
 1/4=131072,38=1,53=2,62=2,63=1/22;
 3/4=131072,5=7,11=9,16=1,25=1,30=1,75=-5/1,2,3;
 4/4=131072/1;
 5/4=131072,5=2,38=5/2;
 8/4=131072,10=1/1;
 9/4=131072,16=-3/6;
 6/4=131072,7=2,8=2,9=2,10=2/1;
 1/4=131072,53=2,62=2,63=1/22;
 3/4=131072,5=7,6=11,11=9,16=1,25=1,30=1,75=-5,82=7/1,2,3;
 4/4=131072/1;
 5/4=131072,5=2,38=5/2;
 8/4=131072,10=1/1;
 9/4=131072,16=-3/6;
 6/4=131072,7=2,8=2,9=2,10=2/1;
 1/4=131072,53=2,62=2,63=1/22(-6);
 99/4=131072,5=1,9=1/99;
 Leave Link    1 at Wed Jan 25 14:48:49 2017, MaxMem=  3623878656 cpu:         1.0
 (Enter /share/apps/gaussian/g09d01/nehalem/g09/l101.exe)
 ----------------
 N3- at t555 eint
 ----------------
 Symbolic Z-matrix:
 Charge = -1 Multiplicity = 1 in supermolecule
 Charge =  0 Multiplicity = 1 in fragment      1.
 Charge = -1 Multiplicity = 1 in fragment      2.
 H(Fragment=1)         3.78359   0.05198   7.71421 
 H(Fragment=1)        -1.21863  -3.58235   7.71421 
 H(Fragment=1)         1.11976   3.61448   7.71421 
 H(Fragment=1)        -1.11976   3.61448   7.71421 
 H(Fragment=1)        -3.03044  -2.266     7.71421 
 H(Fragment=1)         1.21863  -3.58235   7.71421 
 H(Fragment=1)         3.03044  -2.266     7.71421 
 H(Fragment=1)        -3.09155   2.18189   7.71421 
 H(Fragment=1)         3.09155   2.18189   7.71421 
 H(Fragment=1)        -3.78359   0.05198   7.71421 
 C(Fragment=1)         3.0906   -1.72319   6.77713 
 C(Fragment=1)         3.51321  -0.42252   6.77713 
 C(Fragment=1)         2.5939    2.40684   6.77713 
 C(Fragment=1)         1.48748   3.2107    6.77713 
 C(Fragment=1)        -1.48748   3.2107    6.77713 
 C(Fragment=1)        -2.5939    2.40684   6.77713 
 C(Fragment=1)        -3.51321  -0.42252   6.77713 
 C(Fragment=1)        -3.0906   -1.72319   6.77713 
 C(Fragment=1)        -0.6838   -3.47183   6.77713 
 C(Fragment=1)         0.6838   -3.47183   6.77713 
 C(Fragment=1)         0.71656   3.39245   5.56674 
 C(Fragment=1)        -0.71656   3.39245   5.56674 
 C(Fragment=1)        -3.00498   1.72981   5.56674 
 C(Fragment=1)        -3.44784   0.36684   5.56674 
 C(Fragment=1)        -2.57374  -2.32336   5.56674 
 C(Fragment=1)        -1.41432  -3.16573   5.56674 
 C(Fragment=1)         1.41432  -3.16573   5.56674 
 C(Fragment=1)         2.57374  -2.32336   5.56674 
 C(Fragment=1)         3.44784   0.36684   5.56674 
 C(Fragment=1)         3.00498   1.72981   5.56674 
 C(Fragment=1)         2.97926  -1.72706   4.3343 
 C(Fragment=1)         3.42541  -0.35394   4.3343 
 C(Fragment=1)         2.56317   2.29975   4.3343 
 C(Fragment=1)         1.39513   3.14838   4.3343 
 C(Fragment=1)        -1.39513   3.14838   4.3343 
 C(Fragment=1)        -2.56317   2.29975   4.3343 
 C(Fragment=1)        -3.42541  -0.35394   4.3343 
 C(Fragment=1)        -2.97926  -1.72706   4.3343 
 C(Fragment=1)        -0.72189  -3.36713   4.3343 
 C(Fragment=1)         0.72189  -3.36713   4.3343 
 C(Fragment=1)         0.71066   3.35691   3.09699 
 C(Fragment=1)        -0.71066   3.35691   3.09699 
 C(Fragment=1)        -2.97301   1.71322   3.09699 
 C(Fragment=1)        -3.41222   0.36147   3.09699 
 C(Fragment=1)        -2.54808  -2.29808   3.09699 
 C(Fragment=1)        -1.39821  -3.13351   3.09699 
 C(Fragment=1)         1.39821  -3.13351   3.09699 
 C(Fragment=1)         2.54808  -2.29808   3.09699 
 C(Fragment=1)         3.41222   0.36147   3.09699 
 C(Fragment=1)         2.97301   1.71322   3.09699 
 C(Fragment=1)         2.97564  -1.71252   1.85307 
 C(Fragment=1)         3.41394  -0.36358   1.85307 
 C(Fragment=1)         2.54823   2.3008    1.85307 
 C(Fragment=1)         1.40075   3.13449   1.85307 
 C(Fragment=1)        -1.40075   3.13449   1.85307 
 C(Fragment=1)        -2.54823   2.3008    1.85307 
 C(Fragment=1)        -3.41394  -0.36358   1.85307 
 C(Fragment=1)        -2.97564  -1.71252   1.85307 
 C(Fragment=1)        -0.70918  -3.3592    1.85307 
 C(Fragment=1)         0.70918  -3.3592    1.85307 
 C(Fragment=1)         0.71711   3.3734    0.61519 
 C(Fragment=1)        -0.71711   3.3734    0.61519 
 C(Fragment=1)         1.40268  -3.15064   0.61519 
 C(Fragment=1)         2.56299  -2.30763   0.61519 
 C(Fragment=1)         3.42989   0.36042   0.61519 
 C(Fragment=1)         2.98669   1.72445   0.61519 
 C(Fragment=1)        -2.98669   1.72445   0.61519 
 C(Fragment=1)        -3.42989   0.36042   0.61519 
 C(Fragment=1)        -2.56299  -2.30763   0.61519 
 C(Fragment=1)        -1.40268  -3.15064   0.61519 
 C(Fragment=1)         2.98669  -1.72445  -0.61519 
 C(Fragment=1)         3.42989  -0.36042  -0.61519 
 C(Fragment=1)         2.56299   2.30763  -0.61519 
 C(Fragment=1)         1.40268   3.15064  -0.61519 
 C(Fragment=1)        -1.40268   3.15064  -0.61519 
 C(Fragment=1)        -2.56299   2.30763  -0.61519 
 C(Fragment=1)        -3.42989  -0.36042  -0.61519 
 C(Fragment=1)        -2.98669  -1.72445  -0.61519 
 C(Fragment=1)        -0.71711  -3.3734   -0.61519 
 C(Fragment=1)         0.71711  -3.3734   -0.61519 
 C(Fragment=1)         0.70918   3.3592   -1.85307 
 C(Fragment=1)        -0.70918   3.3592   -1.85307 
 C(Fragment=1)        -2.97564   1.71252  -1.85307 
 C(Fragment=1)        -3.41394   0.36358  -1.85307 
 C(Fragment=1)        -2.54823  -2.3008   -1.85307 
 C(Fragment=1)        -1.40075  -3.13449  -1.85307 
 C(Fragment=1)         1.40075  -3.13449  -1.85307 
 C(Fragment=1)         2.54823  -2.3008   -1.85307 
 C(Fragment=1)         3.41394   0.36358  -1.85307 
 C(Fragment=1)         2.97564   1.71252  -1.85307 
 C(Fragment=1)         2.97301  -1.71322  -3.09699 
 C(Fragment=1)         3.41222  -0.36147  -3.09699 
 C(Fragment=1)         2.54808   2.29808  -3.09699 
 C(Fragment=1)         1.39821   3.13351  -3.09699 
 C(Fragment=1)        -1.39821   3.13351  -3.09699 
 C(Fragment=1)        -2.54808   2.29808  -3.09699 
 C(Fragment=1)        -3.41222  -0.36147  -3.09699 
 C(Fragment=1)        -2.97301  -1.71322  -3.09699 
 C(Fragment=1)        -0.71066  -3.35691  -3.09699 
 C(Fragment=1)         0.71066  -3.35691  -3.09699 
 C(Fragment=1)         1.39513  -3.14838  -4.3343 
 C(Fragment=1)         2.56317  -2.29975  -4.3343 
 C(Fragment=1)         3.42541   0.35394  -4.3343 
 C(Fragment=1)         2.97926   1.72706  -4.3343 
 C(Fragment=1)         0.72189   3.36713  -4.3343 
 C(Fragment=1)        -0.72189   3.36713  -4.3343 
 C(Fragment=1)        -2.97926   1.72706  -4.3343 
 C(Fragment=1)        -3.42541   0.35394  -4.3343 
 C(Fragment=1)        -2.56317  -2.29975  -4.3343 
 C(Fragment=1)        -1.39513  -3.14838  -4.3343 
 C(Fragment=1)         3.00498  -1.72981  -5.56674 
 C(Fragment=1)         3.44784  -0.36684  -5.56674 
 C(Fragment=1)         2.57374   2.32336  -5.56674 
 C(Fragment=1)         1.41432   3.16573  -5.56674 
 C(Fragment=1)        -1.41432   3.16573  -5.56674 
 C(Fragment=1)        -2.57374   2.32336  -5.56674 
 C(Fragment=1)        -3.44784  -0.36684  -5.56674 
 C(Fragment=1)        -3.00498  -1.72981  -5.56674 
 C(Fragment=1)        -0.71656  -3.39245  -5.56674 
 C(Fragment=1)         0.71656  -3.39245  -5.56674 
 C(Fragment=1)         0.6838    3.47183  -6.77713 
 C(Fragment=1)        -0.6838    3.47183  -6.77713 
 C(Fragment=1)        -3.0906    1.72319  -6.77713 
 C(Fragment=1)        -3.51321   0.42252  -6.77713 
 C(Fragment=1)        -2.5939   -2.40684  -6.77713 
 C(Fragment=1)        -1.48748  -3.2107   -6.77713 
 C(Fragment=1)         1.48748  -3.2107   -6.77713 
 C(Fragment=1)         2.5939   -2.40684  -6.77713 
 C(Fragment=1)         3.51321   0.42252  -6.77713 
 C(Fragment=1)         3.0906    1.72319  -6.77713 
 H(Fragment=1)         1.21863   3.58235  -7.71421 
 H(Fragment=1)        -1.21863   3.58235  -7.71421 
 H(Fragment=1)        -3.03044   2.266    -7.71421 
 H(Fragment=1)        -3.78359  -0.05198  -7.71421 
 H(Fragment=1)        -3.09155  -2.18189  -7.71421 
 H(Fragment=1)        -1.11976  -3.61448  -7.71421 
 H(Fragment=1)         1.11976  -3.61448  -7.71421 
 H(Fragment=1)         3.09155  -2.18189  -7.71421 
 H(Fragment=1)         3.78359  -0.05198  -7.71421 
 H(Fragment=1)         3.03044   2.266    -7.71421 
 N(Fragment=2)         0.        0.       -1.19056 
 N(Fragment=2)         0.        0.        0. 
 N(Fragment=2)         0.        0.        1.19056 
 
 NAtoms=    143 NQM=      143 NQMF=       0 NMMI=      0 NMMIF=      0
                NMic=       0 NMicF=      0.
                    Isotopes and Nuclear Properties:
 (Nuclear quadrupole moments (NQMom) in fm**2, nuclear magnetic moments (NMagM)
  in nuclear magnetons)

  Atom         1           2           3           4           5           6           7           8           9          10
 IAtWgt=           1           1           1           1           1           1           1           1           1           1
 AtmWgt=   1.0078250   1.0078250   1.0078250   1.0078250   1.0078250   1.0078250   1.0078250   1.0078250   1.0078250   1.0078250
 NucSpn=           1           1           1           1           1           1           1           1           1           1
 AtZEff=   0.0000000   0.0000000   0.0000000   0.0000000   0.0000000   0.0000000   0.0000000   0.0000000   0.0000000   0.0000000
 NQMom=    0.0000000   0.0000000   0.0000000   0.0000000   0.0000000   0.0000000   0.0000000   0.0000000   0.0000000   0.0000000
 NMagM=    2.7928460   2.7928460   2.7928460   2.7928460   2.7928460   2.7928460   2.7928460   2.7928460   2.7928460   2.7928460
 AtZNuc=   1.0000000   1.0000000   1.0000000   1.0000000   1.0000000   1.0000000   1.0000000   1.0000000   1.0000000   1.0000000

  Atom        11          12          13          14          15          16          17          18          19          20
 IAtWgt=          12          12          12          12          12          12          12          12          12          12
 AtmWgt=  12.0000000  12.0000000  12.0000000  12.0000000  12.0000000  12.0000000  12.0000000  12.0000000  12.0000000  12.0000000
 NucSpn=           0           0           0           0           0           0           0           0           0           0
 AtZEff=   0.0000000   0.0000000   0.0000000   0.0000000   0.0000000   0.0000000   0.0000000   0.0000000   0.0000000   0.0000000
 NQMom=    0.0000000   0.0000000   0.0000000   0.0000000   0.0000000   0.0000000   0.0000000   0.0000000   0.0000000   0.0000000
 NMagM=    0.0000000   0.0000000   0.0000000   0.0000000   0.0000000   0.0000000   0.0000000   0.0000000   0.0000000   0.0000000
 AtZNuc=   6.0000000   6.0000000   6.0000000   6.0000000   6.0000000   6.0000000   6.0000000   6.0000000   6.0000000   6.0000000

  Atom        21          22          23          24          25          26          27          28          29          30
 IAtWgt=          12          12          12          12          12          12          12          12          12          12
 AtmWgt=  12.0000000  12.0000000  12.0000000  12.0000000  12.0000000  12.0000000  12.0000000  12.0000000  12.0000000  12.0000000
 NucSpn=           0           0           0           0           0           0           0           0           0           0
 AtZEff=   0.0000000   0.0000000   0.0000000   0.0000000   0.0000000   0.0000000   0.0000000   0.0000000   0.0000000   0.0000000
 NQMom=    0.0000000   0.0000000   0.0000000   0.0000000   0.0000000   0.0000000   0.0000000   0.0000000   0.0000000   0.0000000
 NMagM=    0.0000000   0.0000000   0.0000000   0.0000000   0.0000000   0.0000000   0.0000000   0.0000000   0.0000000   0.0000000
 AtZNuc=   6.0000000   6.0000000   6.0000000   6.0000000   6.0000000   6.0000000   6.0000000   6.0000000   6.0000000   6.0000000

  Atom        31          32          33          34          35          36          37          38          39          40
 IAtWgt=          12          12          12          12          12          12          12          12          12          12
 AtmWgt=  12.0000000  12.0000000  12.0000000  12.0000000  12.0000000  12.0000000  12.0000000  12.0000000  12.0000000  12.0000000
 NucSpn=           0           0           0           0           0           0           0           0           0           0
 AtZEff=   0.0000000   0.0000000   0.0000000   0.0000000   0.0000000   0.0000000   0.0000000   0.0000000   0.0000000   0.0000000
 NQMom=    0.0000000   0.0000000   0.0000000   0.0000000   0.0000000   0.0000000   0.0000000   0.0000000   0.0000000   0.0000000
 NMagM=    0.0000000   0.0000000   0.0000000   0.0000000   0.0000000   0.0000000   0.0000000   0.0000000   0.0000000   0.0000000
 AtZNuc=   6.0000000   6.0000000   6.0000000   6.0000000   6.0000000   6.0000000   6.0000000   6.0000000   6.0000000   6.0000000

  Atom        41          42          43          44          45          46          47          48          49          50
 IAtWgt=          12          12          12          12          12          12          12          12          12          12
 AtmWgt=  12.0000000  12.0000000  12.0000000  12.0000000  12.0000000  12.0000000  12.0000000  12.0000000  12.0000000  12.0000000
 NucSpn=           0           0           0           0           0           0           0           0           0           0
 AtZEff=   0.0000000   0.0000000   0.0000000   0.0000000   0.0000000   0.0000000   0.0000000   0.0000000   0.0000000   0.0000000
 NQMom=    0.0000000   0.0000000   0.0000000   0.0000000   0.0000000   0.0000000   0.0000000   0.0000000   0.0000000   0.0000000
 NMagM=    0.0000000   0.0000000   0.0000000   0.0000000   0.0000000   0.0000000   0.0000000   0.0000000   0.0000000   0.0000000
 AtZNuc=   6.0000000   6.0000000   6.0000000   6.0000000   6.0000000   6.0000000   6.0000000   6.0000000   6.0000000   6.0000000

  Atom        51          52          53          54          55          56          57          58          59          60
 IAtWgt=          12          12          12          12          12          12          12          12          12          12
 AtmWgt=  12.0000000  12.0000000  12.0000000  12.0000000  12.0000000  12.0000000  12.0000000  12.0000000  12.0000000  12.0000000
 NucSpn=           0           0           0           0           0           0           0           0           0           0
 AtZEff=   0.0000000   0.0000000   0.0000000   0.0000000   0.0000000   0.0000000   0.0000000   0.0000000   0.0000000   0.0000000
 NQMom=    0.0000000   0.0000000   0.0000000   0.0000000   0.0000000   0.0000000   0.0000000   0.0000000   0.0000000   0.0000000
 NMagM=    0.0000000   0.0000000   0.0000000   0.0000000   0.0000000   0.0000000   0.0000000   0.0000000   0.0000000   0.0000000
 AtZNuc=   6.0000000   6.0000000   6.0000000   6.0000000   6.0000000   6.0000000   6.0000000   6.0000000   6.0000000   6.0000000

  Atom        61          62          63          64          65          66          67          68          69          70
 IAtWgt=          12          12          12          12          12          12          12          12          12          12
 AtmWgt=  12.0000000  12.0000000  12.0000000  12.0000000  12.0000000  12.0000000  12.0000000  12.0000000  12.0000000  12.0000000
 NucSpn=           0           0           0           0           0           0           0           0           0           0
 AtZEff=   0.0000000   0.0000000   0.0000000   0.0000000   0.0000000   0.0000000   0.0000000   0.0000000   0.0000000   0.0000000
 NQMom=    0.0000000   0.0000000   0.0000000   0.0000000   0.0000000   0.0000000   0.0000000   0.0000000   0.0000000   0.0000000
 NMagM=    0.0000000   0.0000000   0.0000000   0.0000000   0.0000000   0.0000000   0.0000000   0.0000000   0.0000000   0.0000000
 AtZNuc=   6.0000000   6.0000000   6.0000000   6.0000000   6.0000000   6.0000000   6.0000000   6.0000000   6.0000000   6.0000000

  Atom        71          72          73          74          75          76          77          78          79          80
 IAtWgt=          12          12          12          12          12          12          12          12          12          12
 AtmWgt=  12.0000000  12.0000000  12.0000000  12.0000000  12.0000000  12.0000000  12.0000000  12.0000000  12.0000000  12.0000000
 NucSpn=           0           0           0           0           0           0           0           0           0           0
 AtZEff=   0.0000000   0.0000000   0.0000000   0.0000000   0.0000000   0.0000000   0.0000000   0.0000000   0.0000000   0.0000000
 NQMom=    0.0000000   0.0000000   0.0000000   0.0000000   0.0000000   0.0000000   0.0000000   0.0000000   0.0000000   0.0000000
 NMagM=    0.0000000   0.0000000   0.0000000   0.0000000   0.0000000   0.0000000   0.0000000   0.0000000   0.0000000   0.0000000
 AtZNuc=   6.0000000   6.0000000   6.0000000   6.0000000   6.0000000   6.0000000   6.0000000   6.0000000   6.0000000   6.0000000

  Atom        81          82          83          84          85          86          87          88          89          90
 IAtWgt=          12          12          12          12          12          12          12          12          12          12
 AtmWgt=  12.0000000  12.0000000  12.0000000  12.0000000  12.0000000  12.0000000  12.0000000  12.0000000  12.0000000  12.0000000
 NucSpn=           0           0           0           0           0           0           0           0           0           0
 AtZEff=   0.0000000   0.0000000   0.0000000   0.0000000   0.0000000   0.0000000   0.0000000   0.0000000   0.0000000   0.0000000
 NQMom=    0.0000000   0.0000000   0.0000000   0.0000000   0.0000000   0.0000000   0.0000000   0.0000000   0.0000000   0.0000000
 NMagM=    0.0000000   0.0000000   0.0000000   0.0000000   0.0000000   0.0000000   0.0000000   0.0000000   0.0000000   0.0000000
 AtZNuc=   6.0000000   6.0000000   6.0000000   6.0000000   6.0000000   6.0000000   6.0000000   6.0000000   6.0000000   6.0000000

  Atom        91          92          93          94          95          96          97          98          99         100
 IAtWgt=          12          12          12          12          12          12          12          12          12          12
 AtmWgt=  12.0000000  12.0000000  12.0000000  12.0000000  12.0000000  12.0000000  12.0000000  12.0000000  12.0000000  12.0000000
 NucSpn=           0           0           0           0           0           0           0           0           0           0
 AtZEff=   0.0000000   0.0000000   0.0000000   0.0000000   0.0000000   0.0000000   0.0000000   0.0000000   0.0000000   0.0000000
 NQMom=    0.0000000   0.0000000   0.0000000   0.0000000   0.0000000   0.0000000   0.0000000   0.0000000   0.0000000   0.0000000
 NMagM=    0.0000000   0.0000000   0.0000000   0.0000000   0.0000000   0.0000000   0.0000000   0.0000000   0.0000000   0.0000000
 AtZNuc=   6.0000000   6.0000000   6.0000000   6.0000000   6.0000000   6.0000000   6.0000000   6.0000000   6.0000000   6.0000000

  Atom       101         102         103         104         105         106         107         108         109         110
 IAtWgt=          12          12          12          12          12          12          12          12          12          12
 AtmWgt=  12.0000000  12.0000000  12.0000000  12.0000000  12.0000000  12.0000000  12.0000000  12.0000000  12.0000000  12.0000000
 NucSpn=           0           0           0           0           0           0           0           0           0           0
 AtZEff=   0.0000000   0.0000000   0.0000000   0.0000000   0.0000000   0.0000000   0.0000000   0.0000000   0.0000000   0.0000000
 NQMom=    0.0000000   0.0000000   0.0000000   0.0000000   0.0000000   0.0000000   0.0000000   0.0000000   0.0000000   0.0000000
 NMagM=    0.0000000   0.0000000   0.0000000   0.0000000   0.0000000   0.0000000   0.0000000   0.0000000   0.0000000   0.0000000
 AtZNuc=   6.0000000   6.0000000   6.0000000   6.0000000   6.0000000   6.0000000   6.0000000   6.0000000   6.0000000   6.0000000

  Atom       111         112         113         114         115         116         117         118         119         120
 IAtWgt=          12          12          12          12          12          12          12          12          12          12
 AtmWgt=  12.0000000  12.0000000  12.0000000  12.0000000  12.0000000  12.0000000  12.0000000  12.0000000  12.0000000  12.0000000
 NucSpn=           0           0           0           0           0           0           0           0           0           0
 AtZEff=   0.0000000   0.0000000   0.0000000   0.0000000   0.0000000   0.0000000   0.0000000   0.0000000   0.0000000   0.0000000
 NQMom=    0.0000000   0.0000000   0.0000000   0.0000000   0.0000000   0.0000000   0.0000000   0.0000000   0.0000000   0.0000000
 NMagM=    0.0000000   0.0000000   0.0000000   0.0000000   0.0000000   0.0000000   0.0000000   0.0000000   0.0000000   0.0000000
 AtZNuc=   6.0000000   6.0000000   6.0000000   6.0000000   6.0000000   6.0000000   6.0000000   6.0000000   6.0000000   6.0000000

  Atom       121         122         123         124         125         126         127         128         129         130
 IAtWgt=          12          12          12          12          12          12          12          12          12          12
 AtmWgt=  12.0000000  12.0000000  12.0000000  12.0000000  12.0000000  12.0000000  12.0000000  12.0000000  12.0000000  12.0000000
 NucSpn=           0           0           0           0           0           0           0           0           0           0
 AtZEff=   0.0000000   0.0000000   0.0000000   0.0000000   0.0000000   0.0000000   0.0000000   0.0000000   0.0000000   0.0000000
 NQMom=    0.0000000   0.0000000   0.0000000   0.0000000   0.0000000   0.0000000   0.0000000   0.0000000   0.0000000   0.0000000
 NMagM=    0.0000000   0.0000000   0.0000000   0.0000000   0.0000000   0.0000000   0.0000000   0.0000000   0.0000000   0.0000000
 AtZNuc=   6.0000000   6.0000000   6.0000000   6.0000000   6.0000000   6.0000000   6.0000000   6.0000000   6.0000000   6.0000000

  Atom       131         132         133         134         135         136         137         138         139         140
 IAtWgt=           1           1           1           1           1           1           1           1           1           1
 AtmWgt=   1.0078250   1.0078250   1.0078250   1.0078250   1.0078250   1.0078250   1.0078250   1.0078250   1.0078250   1.0078250
 NucSpn=           1           1           1           1           1           1           1           1           1           1
 AtZEff=   0.0000000   0.0000000   0.0000000   0.0000000   0.0000000   0.0000000   0.0000000   0.0000000   0.0000000   0.0000000
 NQMom=    0.0000000   0.0000000   0.0000000   0.0000000   0.0000000   0.0000000   0.0000000   0.0000000   0.0000000   0.0000000
 NMagM=    2.7928460   2.7928460   2.7928460   2.7928460   2.7928460   2.7928460   2.7928460   2.7928460   2.7928460   2.7928460
 AtZNuc=   1.0000000   1.0000000   1.0000000   1.0000000   1.0000000   1.0000000   1.0000000   1.0000000   1.0000000   1.0000000

  Atom       141         142         143
 IAtWgt=          14          14          14
 AtmWgt=  14.0030740  14.0030740  14.0030740
 NucSpn=           2           2           2
 AtZEff=   0.0000000   0.0000000   0.0000000
 NQMom=    2.0440000   2.0440000   2.0440000
 NMagM=    0.4037610   0.4037610   0.4037610
 AtZNuc=   7.0000000   7.0000000   7.0000000
 Leave Link  101 at Wed Jan 25 14:48:49 2017, MaxMem=  3623878656 cpu:         1.5
 (Enter /share/apps/gaussian/g09d01/nehalem/g09/l202.exe)
 Stoichiometry    C120H20N3(1-)
 Framework group  D5D[O(N),C5(N.N),X(C120H20)]
 Deg. of freedom    22
 Full point group                 D5D     NOp  20
 Largest Abelian subgroup         C2H     NOp   4
 Largest concise Abelian subgroup C2H     NOp   4
                         Standard orientation:                         
 ---------------------------------------------------------------------
 Center     Atomic      Atomic             Coordinates (Angstroms)
 Number     Number       Type             X           Y           Z
 ---------------------------------------------------------------------
      1          1           0        3.783594    0.051981    7.714212
      2          1           0       -1.218632   -3.582349    7.714212
      3          1           0        1.119758    3.614475    7.714212
      4          1           0       -1.119758    3.614475    7.714212
      5          1           0       -3.030438   -2.265994    7.714212
      6          1           0        1.218632   -3.582349    7.714212
      7          1           0        3.030438   -2.265994    7.714212
      8          1           0       -3.091546    2.181887    7.714212
      9          1           0        3.091546    2.181887    7.714212
     10          1           0       -3.783594    0.051981    7.714212
     11          6           0        3.090600   -1.723188    6.777129
     12          6           0        3.513212   -0.422521    6.777129
     13          6           0        2.593897    2.406841    6.777129
     14          6           0        1.487483    3.210697    6.777129
     15          6           0       -1.487483    3.210697    6.777129
     16          6           0       -2.593897    2.406841    6.777129
     17          6           0       -3.513212   -0.422521    6.777129
     18          6           0       -3.090600   -1.723188    6.777129
     19          6           0       -0.683801   -3.471830    6.777129
     20          6           0        0.683801   -3.471830    6.777129
     21          6           0        0.716561    3.392449    5.566743
     22          6           0       -0.716561    3.392449    5.566743
     23          6           0       -3.004981    1.729814    5.566743
     24          6           0       -3.447840    0.366834    5.566743
     25          6           0       -2.573742   -2.323365    5.566743
     26          6           0       -1.414321   -3.165733    5.566743
     27          6           0        1.414321   -3.165733    5.566743
     28          6           0        2.573742   -2.323365    5.566743
     29          6           0        3.447840    0.366834    5.566743
     30          6           0        3.004981    1.729814    5.566743
     31          6           0        2.979255   -1.727061    4.334297
     32          6           0        3.425409   -0.353940    4.334297
     33          6           0        2.563173    2.299749    4.334297
     34          6           0        1.395127    3.148384    4.334297
     35          6           0       -1.395127    3.148384    4.334297
     36          6           0       -2.563173    2.299749    4.334297
     37          6           0       -3.425409   -0.353940    4.334297
     38          6           0       -2.979255   -1.727061    4.334297
     39          6           0       -0.721892   -3.367131    4.334297
     40          6           0        0.721892   -3.367131    4.334297
     41          6           0        0.710658    3.356910    3.096992
     42          6           0       -0.710658    3.356910    3.096992
     43          6           0       -2.973006    1.713218    3.096992
     44          6           0       -3.412217    0.361466    3.096992
     45          6           0       -2.548077   -2.298083    3.096992
     46          6           0       -1.398208   -3.133512    3.096992
     47          6           0        1.398208   -3.133512    3.096992
     48          6           0        2.548077   -2.298083    3.096992
     49          6           0        3.412217    0.361466    3.096992
     50          6           0        2.973006    1.713218    3.096992
     51          6           0        2.975638   -1.712521    1.853068
     52          6           0        3.413936   -0.363578    1.853068
     53          6           0        2.548227    2.300802    1.853068
     54          6           0        1.400747    3.134495    1.853068
     55          6           0       -1.400747    3.134495    1.853068
     56          6           0       -2.548227    2.300802    1.853068
     57          6           0       -3.413936   -0.363578    1.853068
     58          6           0       -2.975638   -1.712521    1.853068
     59          6           0       -0.709182   -3.359198    1.853068
     60          6           0        0.709182   -3.359198    1.853068
     61          6           0        0.717111    3.373395    0.615193
     62          6           0       -0.717111    3.373395    0.615193
     63          6           0        1.402677   -3.150641    0.615193
     64          6           0        2.562987   -2.307627    0.615193
     65          6           0        3.429889    0.360423    0.615193
     66          6           0        2.986690    1.724449    0.615193
     67          6           0       -2.986690    1.724449    0.615193
     68          6           0       -3.429889    0.360423    0.615193
     69          6           0       -2.562987   -2.307627    0.615193
     70          6           0       -1.402677   -3.150641    0.615193
     71          6           0        2.986690   -1.724449   -0.615193
     72          6           0        3.429889   -0.360423   -0.615193
     73          6           0        2.562987    2.307627   -0.615193
     74          6           0        1.402677    3.150641   -0.615193
     75          6           0       -1.402677    3.150641   -0.615193
     76          6           0       -2.562987    2.307627   -0.615193
     77          6           0       -3.429889   -0.360423   -0.615193
     78          6           0       -2.986690   -1.724449   -0.615193
     79          6           0       -0.717111   -3.373395   -0.615193
     80          6           0        0.717111   -3.373395   -0.615193
     81          6           0        0.709182    3.359198   -1.853068
     82          6           0       -0.709182    3.359198   -1.853068
     83          6           0       -2.975638    1.712521   -1.853068
     84          6           0       -3.413936    0.363578   -1.853068
     85          6           0       -2.548227   -2.300802   -1.853068
     86          6           0       -1.400747   -3.134495   -1.853068
     87          6           0        1.400747   -3.134495   -1.853068
     88          6           0        2.548227   -2.300802   -1.853068
     89          6           0        3.413936    0.363578   -1.853068
     90          6           0        2.975638    1.712521   -1.853068
     91          6           0        2.973006   -1.713218   -3.096992
     92          6           0        3.412217   -0.361466   -3.096992
     93          6           0        2.548077    2.298083   -3.096992
     94          6           0        1.398208    3.133512   -3.096992
     95          6           0       -1.398208    3.133512   -3.096992
     96          6           0       -2.548077    2.298083   -3.096992
     97          6           0       -3.412217   -0.361466   -3.096992
     98          6           0       -2.973006   -1.713218   -3.096992
     99          6           0       -0.710658   -3.356910   -3.096992
    100          6           0        0.710658   -3.356910   -3.096992
    101          6           0        1.395127   -3.148384   -4.334297
    102          6           0        2.563173   -2.299749   -4.334297
    103          6           0        3.425409    0.353940   -4.334297
    104          6           0        2.979255    1.727061   -4.334297
    105          6           0        0.721892    3.367131   -4.334297
    106          6           0       -0.721892    3.367131   -4.334297
    107          6           0       -2.979255    1.727061   -4.334297
    108          6           0       -3.425409    0.353940   -4.334297
    109          6           0       -2.563173   -2.299749   -4.334297
    110          6           0       -1.395127   -3.148384   -4.334297
    111          6           0        3.004981   -1.729814   -5.566743
    112          6           0        3.447840   -0.366834   -5.566743
    113          6           0        2.573742    2.323365   -5.566743
    114          6           0        1.414321    3.165733   -5.566743
    115          6           0       -1.414321    3.165733   -5.566743
    116          6           0       -2.573742    2.323365   -5.566743
    117          6           0       -3.447840   -0.366834   -5.566743
    118          6           0       -3.004981   -1.729814   -5.566743
    119          6           0       -0.716561   -3.392449   -5.566743
    120          6           0        0.716561   -3.392449   -5.566743
    121          6           0        0.683801    3.471830   -6.777129
    122          6           0       -0.683801    3.471830   -6.777129
    123          6           0       -3.090600    1.723188   -6.777129
    124          6           0       -3.513212    0.422521   -6.777129
    125          6           0       -2.593897   -2.406841   -6.777129
    126          6           0       -1.487483   -3.210697   -6.777129
    127          6           0        1.487483   -3.210697   -6.777129
    128          6           0        2.593897   -2.406841   -6.777129
    129          6           0        3.513212    0.422521   -6.777129
    130          6           0        3.090600    1.723188   -6.777129
    131          1           0        1.218632    3.582349   -7.714212
    132          1           0       -1.218632    3.582349   -7.714212
    133          1           0       -3.030438    2.265994   -7.714212
    134          1           0       -3.783594   -0.051981   -7.714212
    135          1           0       -3.091546   -2.181887   -7.714212
    136          1           0       -1.119758   -3.614475   -7.714212
    137          1           0        1.119758   -3.614475   -7.714212
    138          1           0        3.091546   -2.181887   -7.714212
    139          1           0        3.783594   -0.051981   -7.714212
    140          1           0        3.030438    2.265994   -7.714212
    141          7           0        0.000000    0.000000   -1.190561
    142          7           0        0.000000    0.000000    0.000000
    143          7           0        0.000000    0.000000    1.190561
 ---------------------------------------------------------------------
 Rotational constants (GHZ):      0.0288223      0.0139637      0.0139637
 Leave Link  202 at Wed Jan 25 14:48:49 2017, MaxMem=  3623878656 cpu:         0.4
 (Enter /share/apps/gaussian/g09d01/nehalem/g09/l122.exe)
 Counterpoise: doing full dimer calculation.
 Leave Link  122 at Wed Jan 25 14:48:50 2017, MaxMem=  3623878656 cpu:         0.0
 (Enter /share/apps/gaussian/g09d01/nehalem/g09/l301.exe)
 General basis read from cards:  (5D, 7F)
 Centers:     141    142    143
 6-31+G*
 ****
 Centers:      11     12     13     14     15     16     17     18     19     20
 Centers:      21     22     23     24     25     26     27     28     29     30
 Centers:      31     32     33     34     35     36     37     38     39     40
 Centers:      41     42     43     44     45     46     47     48     49     50
 Centers:      51     52     53     54     55     56     57     58     59     60
 Centers:      61     62     63     64     65     66     67     68     69     70
 Centers:      71     72     73     74     75     76     77     78     79     80
 Centers:      81     82     83     84     85     86     87     88     89     90
 Centers:      91     92     93     94     95     96     97     98     99    100
 Centers:     101    102    103    104    105    106    107    108    109    110
 Centers:     111    112    113    114    115    116    117    118    119    120
 Centers:     121    122    123    124    125    126    127    128    129    130
 Centers:       1      2      3      4      5      6      7      8      9     10
 Centers:     131    132    133    134    135    136    137    138    139    140
 6-31G
 ****
 Ernie: Thresh=  0.10000D-02 Tol=  0.10000D-05 Strict=F.
 There are   302 symmetry adapted cartesian basis functions of AG  symmetry.
 There are   287 symmetry adapted cartesian basis functions of BG  symmetry.
 There are   288 symmetry adapted cartesian basis functions of AU  symmetry.
 There are   300 symmetry adapted cartesian basis functions of BU  symmetry.
 There are   300 symmetry adapted basis functions of AG  symmetry.
 There are   287 symmetry adapted basis functions of BG  symmetry.
 There are   288 symmetry adapted basis functions of AU  symmetry.
 There are   299 symmetry adapted basis functions of BU  symmetry.
  1174 basis functions,  2816 primitive gaussians,  1177 cartesian basis functions
   381 alpha electrons      381 beta electrons
       nuclear repulsion energy     26441.3720154193 Hartrees.
 IExCor=    0 DFT=F Ex=HF Corr=None ExCW=0 ScaHFX=  1.000000
 ScaDFX=  1.000000  1.000000  1.000000  1.000000 ScalE2=  1.000000  1.000000
 IRadAn=      5 IRanWt=     -1 IRanGd=            0 ICorTp=0 IEmpDi=  4
 NAtoms=  143 NActive=  143 NUniq=    9 SFac= 4.00D+00 NAtFMM=   60 NAOKFM=T Big=F
 Integral buffers will be    131072 words long.
 Raffenetti 1 integral format.
 Two-electron integral symmetry is turned on.
 Leave Link  301 at Wed Jan 25 14:48:50 2017, MaxMem=  3623878656 cpu:         0.6
 (Enter /share/apps/gaussian/g09d01/nehalem/g09/l302.exe)
 NPDir=0 NMtPBC=     1 NCelOv=     1 NCel=       1 NClECP=     1 NCelD=      1
         NCelK=      1 NCelE2=     1 NClLst=     1 CellRange=     0.0.
 One-electron integrals computed using PRISM.
 One-electron integral symmetry used in STVInt
 NBasis=  1174 RedAO= T EigKep=  4.40D-06  NBF=   300   287   288   299
 NBsUse=  1174 1.00D-06 EigRej= -1.00D+00 NBFU=   300   287   288   299
 Leave Link  302 at Wed Jan 25 14:50:03 2017, MaxMem=  3623878656 cpu:       661.9
 (Enter /share/apps/gaussian/g09d01/nehalem/g09/l303.exe)
 DipDrv:  MaxL=1.
 Leave Link  303 at Wed Jan 25 14:50:04 2017, MaxMem=  3623878656 cpu:         8.0
 (Enter /share/apps/gaussian/g09d01/nehalem/g09/l401.exe)
 ExpMin= 6.39D-02 ExpMax= 4.17D+03 ExpMxC= 6.27D+02 IAcc=3 IRadAn=         5 AccDes= 0.00D+00
 Harris functional with IExCor=  205 and IRadAn=       5 diagonalized for initial guess.
 HarFok:  IExCor=  205 AccDes= 0.00D+00 IRadAn=         5 IDoV= 1 UseB2=F ITyADJ=14
 ICtDFT=  3500011 ScaDFX=  1.000000  1.000000  1.000000  1.000000
 FoFCou: FMM=F IPFlag=           0 FMFlag=      100000 FMFlg1=        2000
         NFxFlg=           0 DoJE=T BraDBF=F KetDBF=T FulRan=T
         wScrn=  0.000000 ICntrl=     500 IOpCl=  0 I1Cent=   200000004 NGrid=           0
         NMat0=    1 NMatS0=      1 NMatT0=    0 NMatD0=    1 NMtDS0=    0 NMtDT0=    0
 Petite list used in FoFCou.
 Harris En= -4722.60458720453    
 JPrj=0 DoOrth=F DoCkMO=F.
 Initial guess orbital symmetries:
       Occupied  (A1G) (A1G) (A2U) (E2U) (E2U) (E2G) (E2G) (E1G)
                 (E1G) (E1U) (E1U) (A2U) (A1G) (A2G) (A1U) (E1G)
                 (E1G) (E1U) (E1U) (E2U) (E2U) (E2G) (E2G) (E1U)
                 (E1U) (E1G) (E1G) (A2U) (A1G) (E2G) (E2G) (E2U)
                 (E2U) (A1U) (A2G) (E1G) (E1G) (E1U) (E1U) (E2U)
                 (E2U) (E2G) (E2G) (A2U) (E1U) (E1U) (A1G) (E1G)
                 (E1G) (E2U) (E2U) (E2G) (E2G) (A1U) (A2G) (E1G)
                 (E1G) (E1U) (E1U) (E2U) (E2U) (E2G) (E2G) (A1G)
                 (E1U) (E1U) (A1U) (E2G) (E2G) (E1G) (E1G) (E2U)
                 (E2U) (A2U) (E1G) (E1G) (A2G) (E2U) (E2U) (E1U)
                 (E1U) (E2G) (E2G) (E1U) (E1U) (E2U) (E2U) (E1G)
                 (E1G) (E2G) (E2G) (A2U) (A1U) (A1G) (A2G) (E1U)
                 (E1U) (E1G) (E1G) (E2U) (E2U) (E2G) (E2G) (E2G)
                 (E2G) (E2U) (E2U) (E1U) (E1U) (E1G) (E1G) (A2U)
                 (A1G) (A2G) (A1U) (E1U) (E1U) (E1G) (E1G) (E2G)
                 (E2G) (E2U) (E2U) (A1G) (A1G) (E1U) (E1U) (A2U)
                 (E1G) (E1G) (A1G) (E2G) (E2G) (E1U) (E1U) (E2U)
                 (E2U) (A2U) (E2G) (E2G) (E1G) (E1G) (A2U) (E2U)
                 (E2U) (A1G) (E2U) (E2U) (E2G) (E2G) (E1U) (E1U)
                 (E2U) (E2U) (E2G) (E2G) (A2U) (E1G) (E1G) (E2G)
                 (E2G) (E1G) (E1G) (E1U) (E1U) (E2U) (E2U) (E1G)
                 (E1G) (A1G) (E2U) (E2U) (E1U) (E1U) (E2G) (E2G)
                 (E1U) (E1U) (A1U) (E1G) (E1G) (A2G) (A2U) (A1U)
                 (A2U) (A1G) (E2G) (E2G) (A1G) (A2G) (E2U) (E2U)
                 (A2U) (E1G) (E1G) (E1U) (E1U) (A1U) (E2U) (E2U)
                 (E1U) (E1U) (E1G) (E1G) (E2G) (E2G) (E1G) (E1G)
                 (E1U) (E1U) (A2G) (E1G) (E1G) (E2G) (E2G) (A1G)
                 (A2U) (E2U) (E2U) (A1U) (E1U) (E1U) (A2U) (E1G)
                 (E1G) (E1U) (E1U) (A1G) (E2U) (E2U) (E2G) (E2G)
                 (E2U) (E2U) (E1G) (E1G) (A2G) (A1G) (E1U) (E1U)
                 (E2G) (E2G) (A2U) (E1G) (E1G) (E1U) (E1U) (E2U)
                 (E2U) (E2G) (E2G) (E1G) (E1G) (A2U) (E2U) (E2U)
                 (A1U) (A1G) (E2U) (E2U) (E2G) (E2G) (E1G) (E1G)
                 (E2G) (E2G) (E1U) (E1U) (A1G) (E2G) (E2G) (A1G)
                 (E1U) (E1U) (E2U) (E2U) (E1U) (E1U) (A2U) (E2U)
                 (E2U) (E2G) (E2G) (E1U) (E1U) (E1G) (E1G) (E2U)
                 (E2U) (A2U) (E2G) (E2G) (A1G) (E1G) (E1G) (A2G)
                 (E2G) (E2G) (E1U) (E1U) (E2U) (E2U) (A1G) (E1G)
                 (E1G) (E1U) (E1U) (E2G) (E2G) (E2G) (E2G) (E2U)
                 (E2U) (A1U) (A2U) (E2U) (E2U) (A1G) (E1U) (E1U)
                 (E1U) (E1U) (E1G) (E1G) (E1G) (E1G) (E2G) (E2G)
                 (A2U) (E1U) (E1U) (A2U) (E1G) (E1G) (A2G) (E2U)
                 (E2U) (A1G) (E2U) (E2U) (A1G) (E1U) (E1U) (E2G)
                 (E2G) (A1U) (E2U) (E2U) (E2G) (E2G) (A2U) (E1G)
                 (E1G) (E2G) (E2G) (E1G) (E1G) (E2U) (E2U) (E1U)
                 (E1U) (E2U) (E2U) (A1G) (E2G) (E2G) (E1U) (E1U)
                 (E1G) (E1G) (A1U) (E1G) (E1G) (E1U) (E1U) (A2G)
                 (A2U) (A1U) (E1G) (E1G) (A1G)
       Virtual   (A2G) (A2U) (A1U) (E1G) (E1G) (A1G) (E1U) (E1U)
                 (E2G) (E2G) (A2U) (E2U) (E2U) (E1U) (E1U) (E1G)
                 (E1G) (E2U) (E2U) (A2G) (E1U) (E1U) (E2G) (E2G)
                 (E1G) (E1G) (E1G) (E1G) (E2G) (E2G) (A1U) (E2U)
                 (E2U) (E2U) (E2U) (E1U) (E1U) (E2G) (E2G) (A2G)
                 (E2G) (E2G) (E1G) (E1G) (E2U) (E2U) (E1U) (E1U)
                 (E1U) (E1U) (A1U) (E2U) (E2U) (E1G) (E1G) (A2G)
                 (E2G) (E2G) (A2G) (E1U) (E1U) (A1U) (A2U) (A1G)
                 (A1G) (E1G) (E1G) (E1U) (E1U) (A2U) (E2U) (E2U)
                 (E2G) (E2G) (A2U) (A1G) (A2U) (E2G) (E2G) (A1G)
                 (E2U) (E2U) (E1G) (E1G) (E2U) (E2U) (A2U) (E2G)
                 (E2G) (E1U) (E1U) (A1G) (E1G) (E1G) (E2U) (E2U)
                 (E1U) (E1U) (E2G) (E2G) (E1G) (E1G) (E1U) (E1U)
                 (E1G) (E1G) (E2U) (E2U) (E2G) (E2G) (A2U) (E2G)
                 (E2G) (E2U) (E2U) (E1U) (E1U) (E1U) (E1U) (A1G)
                 (E1G) (E1G) (E1U) (E1U) (A2G) (E1G) (E1G) (E2G)
                 (E2G) (E1G) (E1G) (E2G) (E2G) (E2U) (E2U) (A1U)
                 (A2U) (E2U) (E2U) (E1U) (E1U) (A1G) (E2U) (E2U)
                 (A2G) (E1G) (E1G) (E1U) (E1U) (A2U) (E1G) (E1G)
                 (A1U) (E2G) (E2G) (A2G) (E2U) (E2U) (A1U) (A2G)
                 (E1U) (E1U) (A1G) (E1U) (E1U) (A1U) (E2G) (E2G)
                 (A1G) (A2U) (E1G) (E1G) (A2G) (E1U) (E1U) (E2U)
                 (E2U) (E1G) (E1G) (E2G) (E2G) (E1U) (E1U) (A1U)
                 (A1G) (E1G) (E1G) (E2U) (E2U) (A2U) (E2G) (E2G)
                 (A1U) (A2G) (E1U) (E1U) (E1G) (E1G) (E1U) (E1U)
                 (E1G) (E1G) (A2G) (E1U) (E1U) (E2G) (E2G) (E2U)
                 (E2U) (A2G) (A1U) (E2G) (E2G) (E2U) (E2U) (E1G)
                 (E1G) (E1U) (E1U) (E2G) (E2G) (E2U) (E2U) (A1U)
                 (E2G) (E2G) (A1G) (A2U) (A2G) (E1U) (E1U) (E1G)
                 (E1G) (E2U) (E2U) (A1G) (A2U) (E1U) (E1U) (E1U)
                 (E1U) (E2U) (E2U) (A1G) (E2G) (E2G) (E2G) (E2G)
                 (E1G) (E1G) (E2U) (E2U) (E1G) (E1G) (A2U) (E2U)
                 (E2U) (E1U) (E1U) (E2G) (E2G) (E1G) (E1G) (A1U)
                 (A2G) (E2U) (E2U) (E1G) (E1G) (E2G) (E2G) (E1U)
                 (E1U) (A2U) (A1G) (A1G) (E2G) (E2G) (E2U) (E2U)
                 (E1U) (E1U) (E1G) (E1G) (A2U) (E1G) (E1G) (A1G)
                 (E2U) (E2U) (E2G) (E2G) (E1U) (E1U) (E1G) (E1G)
                 (E2G) (E2G) (E1U) (E1U) (E1G) (E1G) (E1U) (E1U)
                 (A2U) (E2U) (E2U) (A2U) (E2G) (E2G) (E1G) (E1G)
                 (E2U) (E2U) (E2U) (E2U) (E2G) (E2G) (E2U) (E2U)
                 (A1U) (E2G) (E2G) (A2G) (E2G) (E2G) (A1G) (E1U)
                 (E1U) (E2U) (E2U) (E1U) (E1U) (E2G) (E2G) (E2G)
                 (E2G) (E2U) (E2U) (E1G) (E1G) (E2U) (E2U) (E1G)
                 (E1G) (E2G) (E2G) (A2U) (A1G) (A2G) (A1U) (E2U)
                 (E2U) (E1G) (E1G) (E1U) (E1U) (A1G) (E1U) (E1U)
                 (A1U) (A2U) (E2G) (E2G) (E1G) (E1G) (E1U) (E1U)
                 (A2G) (E1G) (E1G) (A1U) (E2U) (E2U) (A2G) (E2G)
                 (E2G) (E1U) (E1U) (E2U) (E2U) (A1U) (A2U) (E2G)
                 (E2G) (E2U) (E2U) (A2G) (E1G) (E1G) (E1G) (E1G)
                 (A1U) (A1G) (E1U) (E1U) (E2U) (E2U) (A2G) (E1U)
                 (E1U) (E2G) (E2G) (E1G) (E1G) (E2U) (E2U) (E2G)
                 (E2G) (A2U) (E1G) (E1G) (E1U) (E1U) (A1G) (E1G)
                 (E1G) (A1U) (E2G) (E2G) (A2U) (E2U) (E2U) (A1G)
                 (E2G) (E2G) (E2U) (E2U) (E1U) (E1U) (A2U) (A2U)
                 (E1U) (E1U) (E2G) (E2G) (E2U) (E2U) (E1G) (E1G)
                 (A2G) (A1G) (E2U) (E2U) (E2G) (E2G) (E1U) (E1U)
                 (E1G) (E1G) (E1U) (E1U) (E1G) (E1G) (A1U) (A1G)
                 (A2U) (E1U) (E1U) (A2G) (E1G) (E1G) (A1U) (E1U)
                 (E1U) (E1G) (E1G) (E1U) (E1U) (E2U) (E2U) (E2G)
                 (E2G) (E2U) (E2U) (A1G) (E1G) (E1G) (E2G) (E2G)
                 (A2G) (E1U) (E1U) (E2G) (E2G) (E2U) (E2U) (A2U)
                 (E2U) (E2U) (E2G) (E2G) (E1U) (E1U) (A1G) (E1G)
                 (E1G) (A1G) (E2U) (E2U) (E2G) (E2G) (A2U) (E1G)
                 (E1G) (E1U) (E1U) (A1U) (E2G) (E2G) (A2G) (E1U)
                 (E1U) (E2U) (E2U) (E2G) (E2G) (A2U) (E1G) (E1G)
                 (A1G) (E1G) (E1G) (E2U) (E2U) (E1U) (E1U) (A2G)
                 (E2U) (E2U) (A2U) (E2G) (E2G) (A1G) (A1U) (E2U)
                 (E2U) (A1G) (E1U) (E1U) (E2G) (E2G) (A1U) (A2U)
                 (E1G) (E1G) (A2G) (E1G) (E1G) (E2G) (E2G) (A1G)
                 (E2U) (E2U) (E1U) (E1U) (E1G) (E1G) (E2G) (E2G)
                 (A2U) (A1U) (E1U) (E1U) (E2U) (E2U) (E1G) (E1G)
                 (E2U) (E2U) (E1U) (E1U) (A2G) (E2G) (E2G) (E1G)
                 (E1G) (A2U) (E1U) (E1U) (E1U) (E1U) (E1G) (E1G)
                 (E2U) (E2U) (A1G) (A1G) (E2G) (E2G) (E1U) (E1U)
                 (E1G) (E1G) (E1U) (E1U) (A1U) (E2U) (E2U) (E2G)
                 (E2G) (A2G) (E2U) (E2U) (A2U) (E2G) (E2G) (E1U)
                 (E1U) (E2G) (E2G) (E1G) (E1G) (E1U) (E1U) (E2U)
                 (E2U) (A2G) (E1G) (E1G) (E2U) (E2U) (E2G) (E2G)
                 (E1U) (E1U) (E1G) (E1G) (A1U) (E1G) (E1G) (E1U)
                 (E1U) (A1G) (E2U) (E2U) (A2U) (A2G) (E1G) (E1G)
                 (E2G) (E2G) (E1U) (E1U) (E2G) (E2G) (E2U) (E2U)
                 (A1U) (E2G) (E2G) (E1G) (E1G) (A2U) (E2U) (E2U)
                 (E2G) (E2G) (E1G) (E1G) (E2G) (E2G) (A2G) (E1U)
                 (E1U) (E2G) (E2G) (E1U) (E1U) (A2U) (A1U) (E2U)
                 (E2U) (A1G) (E1U) (E1U) (E2U) (E2U) (E1G) (E1G)
                 (E2U) (E2U) (E2U) (E2U) (A1U) (A2G) (E2U) (E2U)
                 (E1G) (E1G) (E2G) (E2G) (E2G) (E2G) (A2G) (E2G)
                 (E2G) (E1U) (E1U) (E1G) (E1G) (E2U) (E2U) (E1G)
                 (E1G) (A1U) (A1U) (A2U) (E1G) (E1G) (A1G) (E1U)
                 (E1U) (E1U) (E1U) (E1G) (E1G) (E2G) (E2G) (E1G)
                 (E1G) (A2G) (A1U) (E1U) (E1U) (E1U) (E1U) (A2G)
                 (E1G) (E1G) (E1U) (E1U) (A2U) (E2G) (E2G) (A1U)
                 (E1G) (E1G) (A1U) (E2U) (E2U) (E2G) (E2G) (A2G)
                 (A1U) (E2U) (E2U) (A2G) (E1G) (E1G) (A1G) (E1U)
                 (E1U) (A2G) (E2U) (E2U) (E2G) (E2G) (E2U) (E2U)
                 (A1U) (E2U) (E2U) (A1G) (A2G) (E1U) (E1U) (E2G)
                 (E2G) (E1G) (E1G) (E1U) (E1U) (A1U) (E1G) (E1G)
                 (A2G) (A1U) (A2G) (E2G) (E2G) (A2U) (A1U) (E1U)
                 (E1U) (E1U) (E1U) (A2G) (A1G) (E1G) (E1G) (A2U)
                 (A1G)
 The electronic state of the initial guess is 1-A1G.
 Leave Link  401 at Wed Jan 25 14:51:03 2017, MaxMem=  3623878656 cpu:       465.3
 (Enter /share/apps/gaussian/g09d01/nehalem/g09/l502.exe)
 Closed shell SCF:
 Using DIIS extrapolation, IDIIS=  1040.
 Integral symmetry usage will be decided dynamically.
 IVT=     4206663 IEndB=     4206663 NGot=  3623878656 MDV=  3621075140
 LenX=  3621075140 LenY=  3619688634
 Requested convergence on RMS density matrix=1.00D-08 within 128 cycles.
 Requested convergence on MAX density matrix=1.00D-06.
 Requested convergence on             energy=1.00D-06.
 No special actions if energy rises.
 Fock matrices will be formed incrementally for  20 cycles.
 Integral accuracy reduced to 1.0D-05 until final iterations.

 Cycle   1  Pass 0  IDiag  1:
 FoFJK:  IHMeth= 1 ICntrl=       0 DoSepK=F KAlg= 0 I1Cent=   0 FoldK=F
 IRaf= 460000000 NMat=   1 IRICut=       1 DoRegI=T DoRafI=F ISym2E= 1.
 FoFCou: FMM=F IPFlag=           0 FMFlag=      100000 FMFlg1=        2000
         NFxFlg=           0 DoJE=F BraDBF=F KetDBF=F FulRan=T
         wScrn=  0.000000 ICntrl=       0 IOpCl=  0 I1Cent=           0 NGrid=           0
         NMat0=    1 NMatS0=      1 NMatT0=    0 NMatD0=    1 NMtDS0=    0 NMtDT0=    0
 Petite list used in FoFCou.
 E= -4715.19494037711    
 DIIS: error= 5.59D-02 at cycle   1 NSaved=   1.
 NSaved= 1 IEnMin= 1 EnMin= -4715.19494037711     IErMin= 1 ErrMin= 5.59D-02
 ErrMax= 5.59D-02  0.00D+00 EMaxC= 1.00D-01 BMatC= 3.10D+00 BMatP= 3.10D+00
 IDIUse=3 WtCom= 4.41D-01 WtEn= 5.59D-01
 Coeff-Com:  0.100D+01
 Coeff-En:   0.100D+01
 Coeff:      0.100D+01
 Gap=     0.106 Goal=   None    Shift=    0.000
 GapD=    0.106 DampG=1.000 DampE=0.500 DampFc=0.5000 IDamp=-1.
 Damping current iteration by 5.00D-01
 RMSDP=2.09D-02 MaxDP=8.90D+00              OVMax= 1.15D-01

 Cycle   2  Pass 0  IDiag  1:
 RMSU=  8.57D-03    CP:  1.30D+00
 E= -4716.45924506300     Delta-E=       -1.264304685887 Rises=F Damp=T
 DIIS: error= 2.93D-02 at cycle   2 NSaved=   2.
 NSaved= 2 IEnMin= 2 EnMin= -4716.45924506300     IErMin= 2 ErrMin= 2.93D-02
 ErrMax= 2.93D-02  0.00D+00 EMaxC= 1.00D-01 BMatC= 7.36D-01 BMatP= 3.10D+00
 IDIUse=3 WtCom= 7.07D-01 WtEn= 2.93D-01
 Coeff-Com: -0.831D+00 0.183D+01
 Coeff-En:   0.000D+00 0.100D+01
 Coeff:     -0.588D+00 0.159D+01
 Gap=     0.110 Goal=   None    Shift=    0.000
 RMSDP=2.29D-02 MaxDP=9.99D+00 DE=-1.26D+00 OVMax= 3.45D-02

 Cycle   3  Pass 0  IDiag  1:
 RMSU=  5.20D-03    CP:  2.08D+00  2.90D+00
 E= -4717.65619446509     Delta-E=       -1.196949402092 Rises=F Damp=F
 DIIS: error= 7.60D-03 at cycle   3 NSaved=   3.
 NSaved= 3 IEnMin= 3 EnMin= -4717.65619446509     IErMin= 3 ErrMin= 7.60D-03
 ErrMax= 7.60D-03  0.00D+00 EMaxC= 1.00D-01 BMatC= 9.29D-03 BMatP= 7.36D-01
 IDIUse=3 WtCom= 9.24D-01 WtEn= 7.60D-02
 Coeff-Com: -0.120D+00 0.212D+00 0.908D+00
 Coeff-En:   0.000D+00 0.000D+00 0.100D+01
 Coeff:     -0.111D+00 0.196D+00 0.915D+00
 Gap=     0.115 Goal=   None    Shift=    0.000
 RMSDP=6.79D-03 MaxDP=2.95D+00 DE=-1.20D+00 OVMax= 1.82D-02

 Cycle   4  Pass 0  IDiag  1:
 RMSU=  4.08D-03    CP:  2.31D+00  3.00D+00  1.34D+00
 E= -4717.66425339635     Delta-E=       -0.008058931253 Rises=F Damp=F
 DIIS: error= 3.77D-03 at cycle   4 NSaved=   4.
 NSaved= 4 IEnMin= 4 EnMin= -4717.66425339635     IErMin= 4 ErrMin= 3.77D-03
 ErrMax= 3.77D-03  0.00D+00 EMaxC= 1.00D-01 BMatC= 1.70D-03 BMatP= 9.29D-03
 IDIUse=3 WtCom= 9.62D-01 WtEn= 3.77D-02
 Coeff-Com:  0.166D-02-0.150D-01 0.244D+00 0.770D+00
 Coeff-En:   0.000D+00 0.000D+00 0.000D+00 0.100D+01
 Coeff:      0.159D-02-0.144D-01 0.234D+00 0.778D+00
 Gap=     0.118 Goal=   None    Shift=    0.000
 RMSDP=3.37D-03 MaxDP=1.48D+00 DE=-8.06D-03 OVMax= 1.07D-02

 Cycle   5  Pass 0  IDiag  1:
 RMSU=  6.58D-04    CP:  2.42D+00  3.00D+00  1.54D+00  1.53D+00
 E= -4717.66553625595     Delta-E=       -0.001282859605 Rises=F Damp=F
 DIIS: error= 2.59D-03 at cycle   5 NSaved=   5.
 NSaved= 5 IEnMin= 5 EnMin= -4717.66553625595     IErMin= 5 ErrMin= 2.59D-03
 ErrMax= 2.59D-03  0.00D+00 EMaxC= 1.00D-01 BMatC= 4.02D-04 BMatP= 1.70D-03
 IDIUse=3 WtCom= 9.74D-01 WtEn= 2.59D-02
 Coeff-Com:  0.108D-01-0.185D-01-0.954D-01 0.913D-01 0.101D+01
 Coeff-En:   0.000D+00 0.000D+00 0.000D+00 0.000D+00 0.100D+01
 Coeff:      0.105D-01-0.181D-01-0.930D-01 0.889D-01 0.101D+01
 Gap=     0.121 Goal=   None    Shift=    0.000
 RMSDP=5.40D-03 MaxDP=2.40D+00 DE=-1.28D-03 OVMax= 8.76D-03

 Cycle   6  Pass 0  IDiag  1:
 RMSU=  7.31D-04    CP:  2.61D+00  3.00D+00  1.83D+00  2.36D+00  2.30D+00
 E= -4717.66535871930     Delta-E=        0.000177536647 Rises=F Damp=F
 DIIS: error= 3.73D-03 at cycle   6 NSaved=   6.
 NSaved= 6 IEnMin= 5 EnMin= -4717.66553625595     IErMin= 5 ErrMin= 2.59D-03
 ErrMax= 3.73D-03  0.00D+00 EMaxC= 1.00D-01 BMatC= 4.07D-04 BMatP= 4.02D-04
 IDIUse=3 WtCom= 9.74D-01 WtEn= 2.59D-02
 Rare condition: small coef for last iteration:  0.000D+00
 Coeff-Com:  0.716D-02-0.110D-01-0.935D-01-0.781D-02 0.751D+00 0.354D+00
 Coeff-En:   0.000D+00 0.000D+00 0.000D+00 0.000D+00 0.000D+00 0.100D+01
 Coeff:      0.716D-02-0.110D-01-0.935D-01-0.781D-02 0.751D+00 0.354D+00
 Gap=     0.121 Goal=   None    Shift=    0.000
 RMSDP=1.34D-02 MaxDP=5.99D+00 DE= 1.78D-04 OVMax= 2.33D-03

 Cycle   7  Pass 0  IDiag  1:
 RMSU=  6.33D-03    CP:  3.00D+00  3.00D+00  2.49D+00  3.00D+00  3.00D+00
                    CP:  3.00D+00
 E= -4717.66594141487     Delta-E=       -0.000582695568 Rises=F Damp=F
 DIIS: error= 9.20D-03 at cycle   7 NSaved=   7.
 NSaved= 7 IEnMin= 7 EnMin= -4717.66594141487     IErMin= 5 ErrMin= 2.59D-03
 ErrMax= 9.20D-03  0.00D+00 EMaxC= 1.00D-01 BMatC= 2.45D-03 BMatP= 4.02D-04
 IDIUse=3 WtCom= 9.74D-01 WtEn= 2.59D-02
 Coeff-Com:  0.271D-02-0.358D-02-0.550D-01-0.489D-01 0.372D+00 0.127D+01
 Coeff-Com: -0.537D+00
 Coeff-En:   0.000D+00 0.000D+00 0.000D+00 0.000D+00 0.000D+00 0.000D+00
 Coeff-En:   0.100D+01
 Coeff:      0.264D-02-0.348D-02-0.536D-01-0.476D-01 0.362D+00 0.124D+01
 Coeff:     -0.497D+00
 Gap=     0.122 Goal=   None    Shift=    0.000
 RMSDP=1.37D-02 MaxDP=6.11D+00 DE=-5.83D-04 OVMax= 2.40D-03

 Cycle   8  Pass 0  IDiag  1:
 RMSU=  2.62D-04    CP:  2.60D+00  3.00D+00  1.80D+00  2.32D+00  2.05D+00
                    CP:  1.11D+00 -9.89D-04
 E= -4717.66588491363     Delta-E=        0.000056501245 Rises=F Damp=F
 DIIS: error= 4.56D-03 at cycle   8 NSaved=   8.
 NSaved= 8 IEnMin= 7 EnMin= -4717.66594141487     IErMin= 5 ErrMin= 2.59D-03
 ErrMax= 4.56D-03  0.00D+00 EMaxC= 1.00D-01 BMatC= 6.16D-04 BMatP= 4.02D-04
 IDIUse=3 WtCom= 9.74D-01 WtEn= 2.59D-02
 Rare condition: small coef for last iteration:  0.000D+00
 Coeff-Com:  0.281D-02-0.460D-02-0.351D-01-0.778D-02 0.272D+00 0.921D+00
 Coeff-Com: -0.639D+00 0.491D+00
 Coeff-En:   0.000D+00 0.000D+00 0.000D+00 0.000D+00 0.000D+00 0.000D+00
 Coeff-En:   0.000D+00 0.100D+01
 Coeff:      0.281D-02-0.460D-02-0.351D-01-0.778D-02 0.272D+00 0.921D+00
 Coeff:     -0.639D+00 0.491D+00
 Gap=     0.122 Goal=   None    Shift=    0.000
 RMSDP=5.06D-03 MaxDP=2.25D+00 DE= 5.65D-05 OVMax= 1.19D-03

 Cycle   9  Pass 0  IDiag  1:
 RMSU=  1.09D-03    CP:  2.78D+00  3.00D+00  2.03D+00  3.00D+00  2.92D+00
                    CP:  2.70D+00  8.00D-02  1.24D+00
 E= -4717.66748862325     Delta-E=       -0.001603709621 Rises=F Damp=F
 DIIS: error= 9.59D-03 at cycle   9 NSaved=   9.
 NSaved= 9 IEnMin= 9 EnMin= -4717.66748862325     IErMin= 5 ErrMin= 2.59D-03
 ErrMax= 9.59D-03  0.00D+00 EMaxC= 1.00D-01 BMatC= 2.66D-03 BMatP= 4.02D-04
 IDIUse=3 WtCom= 9.74D-01 WtEn= 2.59D-02
 Coeff-Com:  0.137D-02-0.188D-02-0.278D-01-0.300D-01 0.155D+00 0.765D+00
 Coeff-Com: -0.365D+00 0.853D+00-0.350D+00
 Coeff-En:   0.000D+00 0.000D+00 0.000D+00 0.000D+00 0.000D+00 0.000D+00
 Coeff-En:   0.000D+00 0.000D+00 0.100D+01
 Coeff:      0.134D-02-0.183D-02-0.271D-01-0.292D-01 0.151D+00 0.746D+00
 Coeff:     -0.356D+00 0.831D+00-0.315D+00
 Gap=     0.122 Goal=   None    Shift=    0.000
 RMSDP=1.66D-03 MaxDP=7.08D-01 DE=-1.60D-03 OVMax= 1.38D-03

 Cycle  10  Pass 0  IDiag  1:
 RMSU=  5.27D-04    CP:  2.84D+00  3.00D+00  2.13D+00  3.00D+00  3.00D+00
                    CP:  2.84D+00  2.22D-01  8.56D-01  6.65D-01
 E= -4717.66676793436     Delta-E=        0.000720688891 Rises=F Damp=F
 DIIS: error= 9.24D-03 at cycle  10 NSaved=  10.
 NSaved=10 IEnMin= 9 EnMin= -4717.66748862325     IErMin= 5 ErrMin= 2.59D-03
 ErrMax= 9.24D-03  0.00D+00 EMaxC= 1.00D-01 BMatC= 2.66D-03 BMatP= 4.02D-04
 IDIUse=3 WtCom= 9.74D-01 WtEn= 2.59D-02
 Rare condition: small coef for last iteration:  0.000D+00
 Coeff-Com:  0.800D-03-0.582D-03-0.299D-01-0.497D-01 0.131D+00 0.800D+00
 Coeff-Com: -0.292D+00 0.867D+00-0.208D+00-0.218D+00
 Coeff-En:   0.000D+00 0.000D+00 0.000D+00 0.000D+00 0.000D+00 0.000D+00
 Coeff-En:   0.000D+00 0.000D+00 0.000D+00 0.100D+01
 Coeff:      0.800D-03-0.582D-03-0.299D-01-0.497D-01 0.131D+00 0.800D+00
 Coeff:     -0.292D+00 0.867D+00-0.208D+00-0.218D+00
 Gap=     0.122 Goal=   None    Shift=    0.000
 RMSDP=2.46D-03 MaxDP=1.10D+00 DE= 7.21D-04 OVMax= 4.91D-04

 Cycle  11  Pass 0  IDiag  1:
 RMSU=  2.82D-04    CP:  2.75D+00  3.00D+00  2.01D+00  2.94D+00  2.91D+00
                    CP:  2.07D+00  2.99D-02  9.55D-01  6.26D-01  2.70D-01
 E= -4717.66659024706     Delta-E=        0.000177687296 Rises=F Damp=F
 DIIS: error= 7.36D-03 at cycle  11 NSaved=  11.
 NSaved=11 IEnMin= 9 EnMin= -4717.66748862325     IErMin= 5 ErrMin= 2.59D-03
 ErrMax= 7.36D-03  0.00D+00 EMaxC= 1.00D-01 BMatC= 1.63D-03 BMatP= 4.02D-04
 IDIUse=3 WtCom= 9.74D-01 WtEn= 2.59D-02
 Rare condition: small coef for last iteration:  0.000D+00
 Coeff-Com:  0.433D-03-0.162D-03-0.199D-01-0.391D-01 0.669D-01 0.612D+00
 Coeff-Com: -0.299D+00 0.799D+00-0.782D+00-0.220D+00 0.883D+00
 Coeff-En:   0.000D+00 0.000D+00 0.000D+00 0.000D+00 0.000D+00 0.000D+00
 Coeff-En:   0.000D+00 0.000D+00 0.000D+00 0.000D+00 0.100D+01
 Coeff:      0.433D-03-0.162D-03-0.199D-01-0.391D-01 0.669D-01 0.612D+00
 Coeff:     -0.299D+00 0.799D+00-0.782D+00-0.220D+00 0.883D+00
 Gap=     0.122 Goal=   None    Shift=    0.000
 RMSDP=9.96D-04 MaxDP=4.38D-01 DE= 1.78D-04 OVMax= 1.07D-03

 Cycle  12  Pass 0  IDiag  1:
 RMSU=  1.77D-04    CP:  2.79D+00  3.00D+00  2.06D+00  3.00D+00  3.00D+00
                    CP:  2.11D+00  8.59D-02  1.06D+00  5.53D-01  5.66D-01
                    CP:  1.03D+00
 E= -4717.66727532302     Delta-E=       -0.000685075964 Rises=F Damp=F
 DIIS: error= 8.28D-03 at cycle  12 NSaved=  12.
 NSaved=12 IEnMin= 9 EnMin= -4717.66748862325     IErMin= 5 ErrMin= 2.59D-03
 ErrMax= 8.28D-03  0.00D+00 EMaxC= 1.00D-01 BMatC= 2.14D-03 BMatP= 4.02D-04
 IDIUse=3 WtCom= 9.74D-01 WtEn= 2.59D-02
 Coeff-Com: -0.719D-03 0.223D-02-0.166D-01-0.657D-01-0.539D-01 0.675D+00
 Coeff-Com: -0.469D+00 0.103D+01-0.630D+00 0.199D+00 0.104D+01-0.711D+00
 Coeff-En:   0.000D+00 0.000D+00 0.000D+00 0.000D+00 0.000D+00 0.000D+00
 Coeff-En:   0.000D+00 0.000D+00 0.000D+00 0.000D+00 0.000D+00 0.100D+01
 Coeff:     -0.701D-03 0.217D-02-0.162D-01-0.640D-01-0.525D-01 0.657D+00
 Coeff:     -0.457D+00 0.100D+01-0.614D+00 0.194D+00 0.102D+01-0.667D+00
 Gap=     0.123 Goal=   None    Shift=    0.000
 RMSDP=7.07D-04 MaxDP=3.01D-01 DE=-6.85D-04 OVMax= 3.88D-04

 Cycle  13  Pass 0  IDiag  1:
 RMSU=  1.39D-04    CP:  2.81D+00  3.00D+00  2.08D+00  3.00D+00  3.00D+00
                    CP:  2.40D+00  1.50D-01  1.09D+00  5.97D-01  6.95D-01
                    CP:  3.59D-01  4.78D-01
 E= -4717.66700648781     Delta-E=        0.000268835211 Rises=F Damp=F
 DIIS: error= 8.65D-03 at cycle  13 NSaved=  13.
 NSaved=13 IEnMin= 9 EnMin= -4717.66748862325     IErMin= 5 ErrMin= 2.59D-03
 ErrMax= 8.65D-03  0.00D+00 EMaxC= 1.00D-01 BMatC= 2.25D-03 BMatP= 4.02D-04
 IDIUse=3 WtCom= 9.74D-01 WtEn= 2.59D-02
 Rare condition: small coef for last iteration:  0.000D+00
 Coeff-Com: -0.512D-03 0.112D-02 0.545D-03-0.246D-01-0.981D-01 0.522D+00
 Coeff-Com: -0.659D+00 0.934D+00-0.898D+00-0.315D+00 0.176D+01-0.234D+01
 Coeff-Com:  0.211D+01
 Coeff-En:   0.000D+00 0.000D+00 0.000D+00 0.000D+00 0.000D+00 0.000D+00
 Coeff-En:   0.000D+00 0.000D+00 0.000D+00 0.000D+00 0.000D+00 0.000D+00
 Coeff-En:   0.100D+01
 Coeff:     -0.512D-03 0.112D-02 0.545D-03-0.246D-01-0.981D-01 0.522D+00
 Coeff:     -0.659D+00 0.934D+00-0.898D+00-0.315D+00 0.176D+01-0.234D+01
 Coeff:      0.211D+01
 Gap=     0.123 Goal=   None    Shift=    0.000
 RMSDP=4.91D-03 MaxDP=2.20D+00 DE= 2.69D-04 OVMax= 1.11D-03

 Cycle  14  Pass 0  IDiag  1:
 RMSU=  1.18D-04    CP:  2.63D+00  3.00D+00  1.84D+00  2.46D+00  2.26D+00
                    CP:  1.10D+00  8.06D-03  1.25D+00  1.68D-01  3.58D-01
                    CP:  8.81D-01 -5.21D-01  1.31D+00
 E= -4717.66513468582     Delta-E=        0.001871801996 Rises=F Damp=F
 DIIS: error= 3.71D-03 at cycle  14 NSaved=  14.
 NSaved=14 IEnMin= 9 EnMin= -4717.66748862325     IErMin= 5 ErrMin= 2.59D-03
 ErrMax= 3.71D-03  0.00D+00 EMaxC= 1.00D-01 BMatC= 4.74D-04 BMatP= 4.02D-04
 IDIUse=3 WtCom= 9.74D-01 WtEn= 2.59D-02
 Rare condition: small coef for last iteration:  0.000D+00
 Coeff-Com: -0.103D-02 0.234D-02-0.214D-02-0.442D-01-0.114D+00 0.587D+00
 Coeff-Com: -0.671D+00 0.685D+00-0.271D+00-0.818D-01 0.319D+00-0.855D+00
 Coeff-Com:  0.823D+00 0.624D+00
 Coeff-En:   0.000D+00 0.000D+00 0.000D+00 0.000D+00 0.000D+00 0.000D+00
 Coeff-En:   0.000D+00 0.000D+00 0.000D+00 0.000D+00 0.000D+00 0.000D+00
 Coeff-En:   0.000D+00 0.100D+01
 Coeff:     -0.103D-02 0.234D-02-0.214D-02-0.442D-01-0.114D+00 0.587D+00
 Coeff:     -0.671D+00 0.685D+00-0.271D+00-0.818D-01 0.319D+00-0.855D+00
 Coeff:      0.823D+00 0.624D+00
 Gap=     0.123 Goal=   None    Shift=    0.000
 RMSDP=3.05D-03 MaxDP=1.37D+00 DE= 1.87D-03 OVMax= 7.86D-04

 Problem detected with inexpensive integrals.
 Switching to full accuracy and repeating last cycle.
 Cycle  15  Pass 1  IDiag  1:
 E= -4717.66101715771     Delta-E=        0.004117528108 Rises=F Damp=F
 DIIS: error= 1.19D-02 at cycle   1 NSaved=   1.
 NSaved= 1 IEnMin= 1 EnMin= -4717.66101715771     IErMin= 1 ErrMin= 1.19D-02
 ErrMax= 1.19D-02  0.00D+00 EMaxC= 1.00D-01 BMatC= 6.05D-03 BMatP= 6.05D-03
 IDIUse=3 WtCom= 8.81D-01 WtEn= 1.19D-01
 Coeff-Com:  0.100D+01
 Coeff-En:   0.100D+01
 Coeff:      0.100D+01
 Gap=     0.124 Goal=   None    Shift=    0.000
 GapD=    0.124 DampG=1.000 DampE=0.500 DampFc=0.5000 IDamp=-1.
 Damping current iteration by 5.00D-01
 RMSDP=4.81D-02 MaxDP=2.13D+01 DE= 4.12D-03 OVMax= 9.85D-03

 Cycle  16  Pass 1  IDiag  1:
 RMSU=  5.11D-03    CP:  6.29D-01
 E= -4717.66365980256     Delta-E=       -0.002642644849 Rises=F Damp=T
 DIIS: error= 6.25D-03 at cycle   2 NSaved=   2.
 NSaved= 2 IEnMin= 2 EnMin= -4717.66365980256     IErMin= 2 ErrMin= 6.25D-03
 ErrMax= 6.25D-03  0.00D+00 EMaxC= 1.00D-01 BMatC= 1.63D-03 BMatP= 6.05D-03
 IDIUse=3 WtCom= 9.37D-01 WtEn= 6.25D-02
 Coeff-Com: -0.108D+01 0.208D+01
 Coeff-En:   0.000D+00 0.100D+01
 Coeff:     -0.101D+01 0.201D+01
 Gap=     0.123 Goal=   None    Shift=    0.000
 GapD=    0.123 DampG=1.000 DampE=1.000 DampFc=1.0000 IDamp=-1.
 RMSDP=2.38D-02 MaxDP=1.05D+01 DE=-2.64D-03 OVMax= 1.30D-03

 Cycle  17  Pass 1  IDiag  1:
 RMSU=  5.88D-04    CP:  2.62D-01  2.00D+00
 E= -4717.66644333690     Delta-E=       -0.002783534343 Rises=F Damp=F
 DIIS: error= 5.63D-05 at cycle   3 NSaved=   3.
 NSaved= 3 IEnMin= 3 EnMin= -4717.66644333690     IErMin= 3 ErrMin= 5.63D-05
 ErrMax= 5.63D-05  0.00D+00 EMaxC= 1.00D-01 BMatC= 3.57D-07 BMatP= 1.63D-03
 IDIUse=1 WtCom= 1.00D+00 WtEn= 0.00D+00
 Coeff-Com:  0.859D-01-0.169D+00 0.108D+01
 Coeff:      0.859D-01-0.169D+00 0.108D+01
 Gap=     0.123 Goal=   None    Shift=    0.000
 RMSDP=8.99D-05 MaxDP=2.55D-02 DE=-2.78D-03 OVMax= 5.46D-04

 Cycle  18  Pass 1  IDiag  1:
 RMSU=  2.28D-05    CP:  2.63D-01  2.00D+00  1.13D+00
 E= -4717.66644485937     Delta-E=       -0.000001522465 Rises=F Damp=F
 DIIS: error= 4.79D-05 at cycle   4 NSaved=   4.
 NSaved= 4 IEnMin= 4 EnMin= -4717.66644485937     IErMin= 4 ErrMin= 4.79D-05
 ErrMax= 4.79D-05  0.00D+00 EMaxC= 1.00D-01 BMatC= 2.20D-07 BMatP= 3.57D-07
 IDIUse=1 WtCom= 1.00D+00 WtEn= 0.00D+00
 Coeff-Com:  0.101D+00-0.197D+00 0.481D+00 0.615D+00
 Coeff:      0.101D+00-0.197D+00 0.481D+00 0.615D+00
 Gap=     0.124 Goal=   None    Shift=    0.000
 RMSDP=9.21D-06 MaxDP=2.29D-03 DE=-1.52D-06 OVMax= 2.61D-04

 Cycle  19  Pass 1  IDiag  1:
 RMSU=  1.69D-06    CP:  2.63D-01  2.00D+00  1.14D+00  1.18D+00
 E= -4717.66644539948     Delta-E=       -0.000000540116 Rises=F Damp=F
 DIIS: error= 2.41D-05 at cycle   5 NSaved=   5.
 NSaved= 5 IEnMin= 5 EnMin= -4717.66644539948     IErMin= 5 ErrMin= 2.41D-05
 ErrMax= 2.41D-05  0.00D+00 EMaxC= 1.00D-01 BMatC= 3.90D-08 BMatP= 2.20D-07
 IDIUse=1 WtCom= 1.00D+00 WtEn= 0.00D+00
 Coeff-Com: -0.518D-01 0.102D+00-0.500D+00-0.156D+00 0.161D+01
 Coeff:     -0.518D-01 0.102D+00-0.500D+00-0.156D+00 0.161D+01
 Gap=     0.124 Goal=   None    Shift=    0.000
 RMSDP=8.36D-06 MaxDP=1.62D-03 DE=-5.40D-07 OVMax= 3.75D-04

 Cycle  20  Pass 1  IDiag  1:
 RMSU=  2.45D-06    CP:  2.63D-01  2.00D+00  1.15D+00  1.42D+00  1.68D+00
 E= -4717.66644577306     Delta-E=       -0.000000373573 Rises=F Damp=F
 DIIS: error= 9.08D-06 at cycle   6 NSaved=   6.
 NSaved= 6 IEnMin= 6 EnMin= -4717.66644577306     IErMin= 6 ErrMin= 9.08D-06
 ErrMax= 9.08D-06  0.00D+00 EMaxC= 1.00D-01 BMatC= 8.29D-09 BMatP= 3.90D-08
 IDIUse=1 WtCom= 1.00D+00 WtEn= 0.00D+00
 Coeff-Com: -0.376D-01 0.734D-01-0.279D+00-0.167D+00 0.648D+00 0.763D+00
 Coeff:     -0.376D-01 0.734D-01-0.279D+00-0.167D+00 0.648D+00 0.763D+00
 Gap=     0.124 Goal=   None    Shift=    0.000
 RMSDP=1.32D-06 MaxDP=4.32D-04 DE=-3.74D-07 OVMax= 1.08D-04

 Cycle  21  Pass 1  IDiag  1:
 RMSU=  5.23D-07    CP:  2.63D-01  2.00D+00  1.15D+00  1.42D+00  1.92D+00
                    CP:  1.16D+00
 E= -4717.66644581055     Delta-E=       -0.000000037497 Rises=F Damp=F
 DIIS: error= 2.82D-06 at cycle   7 NSaved=   7.
 NSaved= 7 IEnMin= 7 EnMin= -4717.66644581055     IErMin= 7 ErrMin= 2.82D-06
 ErrMax= 2.82D-06  0.00D+00 EMaxC= 1.00D-01 BMatC= 7.32D-10 BMatP= 8.29D-09
 IDIUse=1 WtCom= 1.00D+00 WtEn= 0.00D+00
 Coeff-Com:  0.280D-02-0.555D-02 0.424D-01-0.854D-03-0.177D+00 0.122D+00
 Coeff-Com:  0.102D+01
 Coeff:      0.280D-02-0.555D-02 0.424D-01-0.854D-03-0.177D+00 0.122D+00
 Coeff:      0.102D+01
 Gap=     0.124 Goal=   None    Shift=    0.000
 RMSDP=1.91D-06 MaxDP=4.73D-04 DE=-3.75D-08 OVMax= 4.14D-05

 Cycle  22  Pass 1  IDiag  1:
 RMSU=  2.84D-07    CP:  2.63D-01  2.00D+00  1.14D+00  1.38D+00  1.90D+00
                    CP:  1.20D+00  1.19D+00
 E= -4717.66644581463     Delta-E=       -0.000000004075 Rises=F Damp=F
 DIIS: error= 1.10D-06 at cycle   8 NSaved=   8.
 NSaved= 8 IEnMin= 8 EnMin= -4717.66644581463     IErMin= 8 ErrMin= 1.10D-06
 ErrMax= 1.10D-06  0.00D+00 EMaxC= 1.00D-01 BMatC= 1.09D-10 BMatP= 7.32D-10
 IDIUse=1 WtCom= 1.00D+00 WtEn= 0.00D+00
 Coeff-Com:  0.419D-02-0.821D-02 0.360D-01 0.152D-01-0.102D+00-0.445D-01
 Coeff-Com:  0.244D+00 0.856D+00
 Coeff:      0.419D-02-0.821D-02 0.360D-01 0.152D-01-0.102D+00-0.445D-01
 Coeff:      0.244D+00 0.856D+00
 Gap=     0.124 Goal=   None    Shift=    0.000
 RMSDP=3.81D-07 MaxDP=1.23D-04 DE=-4.07D-09 OVMax= 1.00D-05

 Cycle  23  Pass 1  IDiag  1:
 RMSU=  8.36D-08    CP:  2.63D-01  2.00D+00  1.14D+00  1.36D+00  1.85D+00
                    CP:  1.20D+00  1.18D+00  1.32D+00
 E= -4717.66644581544     Delta-E=       -0.000000000811 Rises=F Damp=F
 DIIS: error= 7.71D-07 at cycle   9 NSaved=   9.
 NSaved= 9 IEnMin= 9 EnMin= -4717.66644581544     IErMin= 9 ErrMin= 7.71D-07
 ErrMax= 7.71D-07  0.00D+00 EMaxC= 1.00D-01 BMatC= 2.97D-11 BMatP= 1.09D-10
 IDIUse=1 WtCom= 1.00D+00 WtEn= 0.00D+00
 Coeff-Com: -0.123D-02 0.242D-02-0.142D-01-0.181D-02 0.521D-01-0.192D-01
 Coeff-Com: -0.254D+00-0.129D+00 0.137D+01
 Coeff:     -0.123D-02 0.242D-02-0.142D-01-0.181D-02 0.521D-01-0.192D-01
 Coeff:     -0.254D+00-0.129D+00 0.137D+01
 Gap=     0.124 Goal=   None    Shift=    0.000
 RMSDP=1.75D-07 MaxDP=7.03D-05 DE=-8.11D-10 OVMax= 1.27D-05

 Cycle  24  Pass 1  IDiag  1:
 RMSU=  3.41D-08    CP:  2.63D-01  2.00D+00  1.14D+00  1.36D+00  1.82D+00
                    CP:  1.19D+00  1.14D+00  1.54D+00  1.67D+00
 E= -4717.66644581457     Delta-E=        0.000000000866 Rises=F Damp=F
 DIIS: error= 3.98D-07 at cycle  10 NSaved=  10.
 NSaved=10 IEnMin= 9 EnMin= -4717.66644581544     IErMin=10 ErrMin= 3.98D-07
 ErrMax= 3.98D-07  0.00D+00 EMaxC= 1.00D-01 BMatC= 8.82D-12 BMatP= 2.97D-11
 IDIUse=1 WtCom= 1.00D+00 WtEn= 0.00D+00
 Coeff-Com: -0.149D-02 0.291D-02-0.134D-01-0.482D-02 0.398D-01 0.126D-01
 Coeff-Com: -0.126D+00-0.277D+00 0.241D+00 0.113D+01
 Coeff:     -0.149D-02 0.291D-02-0.134D-01-0.482D-02 0.398D-01 0.126D-01
 Coeff:     -0.126D+00-0.277D+00 0.241D+00 0.113D+01
 Gap=     0.124 Goal=   None    Shift=    0.000
 RMSDP=6.97D-08 MaxDP=1.48D-05 DE= 8.66D-10 OVMax= 8.54D-06

 Cycle  25  Pass 1  IDiag  1:
 RMSU=  9.20D-09    CP:  2.63D-01  2.00D+00  1.14D+00  1.36D+00  1.81D+00
                    CP:  1.18D+00  1.12D+00  1.61D+00  1.93D+00  1.83D+00
 E= -4717.66644581806     Delta-E=       -0.000000003489 Rises=F Damp=F
 DIIS: error= 1.75D-07 at cycle  11 NSaved=  11.
 NSaved=11 IEnMin=11 EnMin= -4717.66644581806     IErMin=11 ErrMin= 1.75D-07
 ErrMax= 1.75D-07  0.00D+00 EMaxC= 1.00D-01 BMatC= 1.54D-12 BMatP= 8.82D-12
 IDIUse=1 WtCom= 1.00D+00 WtEn= 0.00D+00
 Coeff-Com:  0.401D-03-0.788D-03 0.455D-02 0.407D-03-0.161D-01 0.657D-02
 Coeff-Com:  0.729D-01 0.412D-01-0.404D+00-0.323D-01 0.133D+01
 Coeff:      0.401D-03-0.788D-03 0.455D-02 0.407D-03-0.161D-01 0.657D-02
 Coeff:      0.729D-01 0.412D-01-0.404D+00-0.323D-01 0.133D+01
 Gap=     0.124 Goal=   None    Shift=    0.000
 RMSDP=5.69D-08 MaxDP=1.24D-05 DE=-3.49D-09 OVMax= 5.08D-06

 Cycle  26  Pass 1  IDiag  1:
 RMSU=  7.86D-09    CP:  2.63D-01  2.00D+00  1.14D+00  1.36D+00  1.81D+00
                    CP:  1.19D+00  1.11D+00  1.61D+00  2.03D+00  2.27D+00
                    CP:  2.26D+00
 E= -4717.66644581714     Delta-E=        0.000000000924 Rises=F Damp=F
 DIIS: error= 2.92D-08 at cycle  12 NSaved=  12.
 NSaved=12 IEnMin=11 EnMin= -4717.66644581806     IErMin=12 ErrMin= 2.92D-08
 ErrMax= 2.92D-08  0.00D+00 EMaxC= 1.00D-01 BMatC= 1.20D-13 BMatP= 1.54D-12
 IDIUse=1 WtCom= 1.00D+00 WtEn= 0.00D+00
 Coeff-Com:  0.152D-03-0.298D-03 0.145D-02 0.305D-03-0.432D-02-0.184D-03
 Coeff-Com:  0.138D-01 0.258D-01-0.465D-01-0.106D+00 0.104D+00 0.101D+01
 Coeff:      0.152D-03-0.298D-03 0.145D-02 0.305D-03-0.432D-02-0.184D-03
 Coeff:      0.138D-01 0.258D-01-0.465D-01-0.106D+00 0.104D+00 0.101D+01
 Gap=     0.124 Goal=   None    Shift=    0.000
 RMSDP=9.01D-09 MaxDP=3.46D-06 DE= 9.24D-10 OVMax= 7.74D-07

 Cycle  27  Pass 1  IDiag  1:
 RMSU=  1.48D-09    CP:  2.63D-01  2.00D+00  1.14D+00  1.36D+00  1.81D+00
                    CP:  1.19D+00  1.11D+00  1.60D+00  2.02D+00  2.32D+00
                    CP:  2.52D+00  1.25D+00
 E= -4717.66644581836     Delta-E=       -0.000000001222 Rises=F Damp=F
 DIIS: error= 7.32D-09 at cycle  13 NSaved=  13.
 NSaved=13 IEnMin=13 EnMin= -4717.66644581836     IErMin=13 ErrMin= 7.32D-09
 ErrMax= 7.32D-09  0.00D+00 EMaxC= 1.00D-01 BMatC= 2.36D-14 BMatP= 1.20D-13
 IDIUse=1 WtCom= 1.00D+00 WtEn= 0.00D+00
 Coeff-Com: -0.449D-04 0.884D-04-0.567D-03-0.570D-04 0.224D-02-0.111D-02
 Coeff-Com: -0.115D-01-0.255D-02 0.696D-01-0.160D-01-0.228D+00 0.203D+00
 Coeff-Com:  0.985D+00
 Coeff:     -0.449D-04 0.884D-04-0.567D-03-0.570D-04 0.224D-02-0.111D-02
 Coeff:     -0.115D-01-0.255D-02 0.696D-01-0.160D-01-0.228D+00 0.203D+00
 Coeff:      0.985D+00
 Gap=     0.124 Goal=   None    Shift=    0.000
 RMSDP=3.46D-09 MaxDP=7.37D-07 DE=-1.22D-09 OVMax= 1.79D-07

 SCF Done:  E(RHF) =  -4717.66644582     A.U. after   27 cycles
            NFock= 27  Conv=0.35D-08     -V/T= 2.0001
 KE= 4.717289698471D+03 PE=-6.393539954342D+04 EE= 2.805907138371D+04
 Leave Link  502 at Wed Jan 25 15:28:14 2017, MaxMem=  3623878656 cpu:     20093.3
 (Enter /share/apps/gaussian/g09d01/nehalem/g09/l801.exe)
 ExpMin= 6.39D-02 ExpMax= 4.17D+03 ExpMxC= 6.27D+02 IAcc=3 IRadAn=         5 AccDes= 0.00D+00
 HarFok:  IExCor=  205 AccDes= 0.00D+00 IRadAn=         5 IDoV=-2 UseB2=F ITyADJ=14
 ICtDFT= 12500011 ScaDFX=  1.000000  1.000000  1.000000  1.000000
 Largest valence mixing into a core orbital is  1.18D-04
 Largest core mixing into a valence orbital is  8.24D-05
 Range of M.O.s used for correlation:   124  1174
 NBasis=  1174 NAE=   381 NBE=   381 NFC=   123 NFV=     0
 NROrb=   1051 NOA=   258 NOB=   258 NVA=   793 NVB=   793

 **** Warning!!: The largest alpha MO coefficient is  0.11286335D+03

 Leave Link  801 at Wed Jan 25 15:28:19 2017, MaxMem=  3623878656 cpu:        38.8
 (Enter /share/apps/gaussian/g09d01/nehalem/g09/l906.exe)
 FulOut=F Deriv=F AODrv=F NAtomX=   143
   MMem=          15  MDisk=         258 MDiskD=         258
  W3Min=   240807138 MinDsk=   174068927 NBas6D=        1177
 NBas2D=      694792    NTT=      693253    LW2=     2000000
    MDV=  3618440290 MDiskM=       42674 NBas2p=       97404
 Disk-based method using OVN memory for258 occupieds at a time.
 Estimated scratch disk usage= 62976513080 words.
 IMap=   1   2   3   4   5   6   7   8   9  10  11  12  13  14  15  16  17  18  19  20
 IMap=  21  22  23  24  25  26  27  28  29  30  31  32  33  34  35  36  37  38  39  40
 IMap=  41  42  43  44  45  46  47  48  49  50  51  52  53  54  55  56  57  58  59  60
 IMap=  61  62  63  64  65  66  67  68  69  70  71  72  73  74  75  76  77  78  79  80
 IMap=  81  82  83  84  85  86  87  88  89  90  91  92  93  94  95  96  97  98  99 100
 IMap= 101 102 103 104 105 106 107 108 109 110 111 112 113 114 115 116 117 118 119 120
 IMap= 121 122 123 124 125 126 127 128 129 130 131 132 133 134 135 136 137 138 139 140
 IMap= 141 142 143 144 145 146 147 148 149 150 151 152 153 154 155 156 157 158 159 160
 IMap= 161 162 163 164 165 166 167 168 169 170 171 172 173 174 175 176 177 178 179 180
 IMap= 181 182 183 184 185 186 187 188 189 190 191 192 193 194 195 196 197 198 199 200
 IMap= 201 202 203 204 205 206 207 208 209 210 211 212 213 214 215 216 217 218 219 220
 IMap= 221 222 223 224 225 226 227 228 229 230 231 232 233 234 235 236 237 238 239 240
 IMap= 241 242 243 244 245 246 247 248 249 250 251 252 253 254 255 256 257 258
 Actual    scratch disk usage= 59790545976 words.
 JobTyp=1 Pass  1:  I=   1 to 258 NPSUse= 10 ParTrn=T ParDer=T DoDerP=F.
 Spin components of T(2) and E(2):
     alpha-alpha T2 =       0.8073425308D+00 E2=     -0.1664662616D+01
     alpha-beta  T2 =       0.3609058915D+01 E2=     -0.8015253215D+01
     beta-beta   T2 =       0.8073425308D+00 E2=     -0.1664662616D+01
 The integrals were generated   1 times.
 ANorm=    0.2494743269D+01
 E2 =    -0.1134457845D+02 EUMP2 =    -0.47290110242653D+04
 Leave Link  906 at Wed Jan 25 19:53:58 2017, MaxMem=  3623878656 cpu:    127768.4
 (Enter /share/apps/gaussian/g09d01/nehalem/g09/l601.exe)
 Copying SCF densities to generalized density rwf, IOpCl= 0 IROHF=0.

 **********************************************************************

            Population analysis using the SCF density.

 **********************************************************************

 Orbital symmetries:
       Occupied  (A1G) (A2U) (A1G) (A2U) (A1G) (E1U) (E1U) (E1G)
                 (E1G) (E2U) (E2U) (E2G) (E2G) (E2U) (E2U) (E2G)
                 (E2G) (E1U) (E1U) (E1G) (E1G) (A1U) (A2G) (A2U)
                 (A1G) (E1U) (E1U) (E1G) (E1G) (E2U) (E2U) (E2G)
                 (E2G) (E2G) (E2G) (E2U) (E2U) (E1U) (E1U) (E1G)
                 (E1G) (A2G) (A1U) (A2U) (A1G) (E1U) (E1U) (E1G)
                 (E1G) (E2G) (E2G) (E2U) (E2U) (E2U) (E2U) (E2G)
                 (E2G) (E1G) (E1G) (E1U) (E1U) (A1U) (A2G) (A1G)
                 (E1U) (E1U) (E2G) (E2G) (A2U) (E1G) (E1G) (E2U)
                 (E2U) (E2U) (E2U) (E2G) (E2G) (E1U) (E1U) (E1G)
[...]
 IDIUse=1 WtCom= 1.00D+00 WtEn= 0.00D+00
 Coeff-Com: -0.438D-05 0.432D-05 0.998D-04 0.209D-03-0.442D-03-0.117D-01
 Coeff-Com:  0.955D-01-0.415D+00 0.133D+01
 Coeff:     -0.438D-05 0.432D-05 0.998D-04 0.209D-03-0.442D-03-0.117D-01
 Coeff:      0.955D-01-0.415D+00 0.133D+01
 Gap=     0.399 Goal=   None    Shift=    0.000
 RMSDP=2.28D-07 MaxDP=2.42D-06 DE=-1.73D-10 OVMax= 1.07D-06

 Cycle  10  Pass 1  IDiag  1:
 E= -163.277563762222     Delta-E=       -0.000000000004 Rises=F Damp=F
 DIIS: error= 1.51D-08 at cycle  10 NSaved=  10.
 NSaved=10 IEnMin=10 EnMin= -163.277563762222     IErMin=10 ErrMin= 1.51D-08
 ErrMax= 1.51D-08  0.00D+00 EMaxC= 1.00D-01 BMatC= 9.55D-15 BMatP= 1.81D-12
 IDIUse=1 WtCom= 1.00D+00 WtEn= 0.00D+00
 Coeff-Com:  0.871D-06-0.746D-06-0.220D-04-0.413D-04 0.138D-03 0.174D-02
 Coeff-Com: -0.162D-01 0.783D-01-0.307D+00 0.124D+01
 Coeff:      0.871D-06-0.746D-06-0.220D-04-0.413D-04 0.138D-03 0.174D-02
 Coeff:     -0.162D-01 0.783D-01-0.307D+00 0.124D+01
 Gap=     0.399 Goal=   None    Shift=    0.000
 RMSDP=1.34D-07 MaxDP=1.68D-06 DE=-3.78D-12 OVMax= 6.98D-08

 Cycle  11  Pass 1  IDiag  1:
 E= -163.277563762223     Delta-E=       -0.000000000001 Rises=F Damp=F
 DIIS: error= 1.89D-09 at cycle  11 NSaved=  11.
 NSaved=11 IEnMin=11 EnMin= -163.277563762223     IErMin=11 ErrMin= 1.89D-09
 ErrMax= 1.89D-09  0.00D+00 EMaxC= 1.00D-01 BMatC= 1.02D-16 BMatP= 9.55D-15
 IDIUse=1 WtCom= 1.00D+00 WtEn= 0.00D+00
 Coeff-Com: -0.152D-06 0.152D-06 0.319D-05 0.562D-05-0.228D-04-0.200D-03
 Coeff-Com:  0.203D-02-0.995D-02 0.414D-01-0.227D+00 0.119D+01
 Coeff:     -0.152D-06 0.152D-06 0.319D-05 0.562D-05-0.228D-04-0.200D-03
 Coeff:      0.203D-02-0.995D-02 0.414D-01-0.227D+00 0.119D+01
 Gap=     0.399 Goal=   None    Shift=    0.000
 RMSDP=7.67D-09 MaxDP=8.21D-08 DE=-9.09D-13 OVMax= 7.55D-09

 SCF Done:  E(RHF) =  -163.277563762     A.U. after   11 cycles
            NFock= 11  Conv=0.77D-08     -V/T= 2.0040
 KE= 1.626207924927D+02 PE=-4.975191473388D+02 EE= 1.171723352280D+02
 Leave Link  502 at Thu Jan 26 04:58:26 2017, MaxMem=  3623878656 cpu:       148.7
 (Enter /share/apps/gaussian/g09d01/nehalem/g09/l801.exe)
 ExpMin= 6.39D-02 ExpMax= 4.17D+03 ExpMxC= 6.27D+02 IAcc=3 IRadAn=         5 AccDes= 0.00D+00
 HarFok:  IExCor=  205 AccDes= 0.00D+00 IRadAn=         5 IDoV=-2 UseB2=F ITyADJ=14
 ICtDFT= 12500011 ScaDFX=  1.000000  1.000000  1.000000  1.000000
 Largest valence mixing into a core orbital is  1.32D-04
 Largest core mixing into a valence orbital is  7.07D-05
 Range of M.O.s used for correlation:     4    54
 NBasis=    54 NAE=    11 NBE=    11 NFC=     3 NFV=     0
 NROrb=     51 NOA=     8 NOB=     8 NVA=    43 NVB=    43

 **** Warning!!: The largest alpha MO coefficient is  0.14253585D+03

 Leave Link  801 at Thu Jan 26 04:58:26 2017, MaxMem=  3623878656 cpu:         2.2
 (Enter /share/apps/gaussian/g09d01/nehalem/g09/l906.exe)
 FulOut=F Deriv=F AODrv=F NAtomX=     3
   MMem=      152827  MDisk=           8 MDiskD=           8
  W3Min=       19608 MinDsk=       92437 NBas6D=          57
 NBas2D=        1752    NTT=        1653    LW2=     2000000
    MDV=  3623854340 MDiskM=      882518 NBas2p=        1029
 Fully in-core method, ICMem=     9172788.
 IMap=   1   2   3   4   5   6   7   8
 JobTyp=1 Pass  1 fully in-core, NPsUse= 10.
 Compute canonical integrals.
 FoFCou: FMM=F IPFlag=           0 FMFlag=           0 FMFlg1=           0
         NFxFlg=           0 DoJE=F BraDBF=F KetDBF=F FulRan=T
         wScrn=  0.000000 ICntrl=     600 IOpCl=  1 I1Cent=           0 NGrid=           0
         NMat0=    1 NMatS0=   1752 NMatT0=    0 NMatD0=    1 NMtDS0=    0 NMtDT0=    0
 Symmetry not used in FoFCou.
 Spin components of T(2) and E(2):
     alpha-alpha T2 =       0.3145956323D-01 E2=     -0.7723264370D-01
     alpha-beta  T2 =       0.1521439587D+00 E2=     -0.3815356311D+00
     beta-beta   T2 =       0.3145956323D-01 E2=     -0.7723264370D-01
 The integrals were generated   1 times.
 ANorm=    0.1102299000D+01
 E2 =    -0.5360009185D+00 EUMP2 =    -0.16381356468075D+03
 Leave Link  906 at Thu Jan 26 04:58:34 2017, MaxMem=  3623878656 cpu:        75.0
 (Enter /share/apps/gaussian/g09d01/nehalem/g09/l601.exe)
 Copying SCF densities to generalized density rwf, IOpCl= 0 IROHF=0.

 **********************************************************************

            Population analysis using the SCF density.

 **********************************************************************

 Orbital symmetries:
       Occupied  (A1G) (A2U) (A1G) (A1G) (A2U) (A1G) (E1U) (E1U)
                 (A2U) (E1G) (E1G)
       Virtual   (A2U) (A1G) (E1U) (E1U) (A1G) (E1G) (E1G) (E1U)
                 (E1U) (A2U) (E1U) (E1U) (A1G) (A2U) (A1G) (A2U)
                 (A1G) (E1U) (E1U) (E1G) (E1G) (E1U) (E1U) (A2U)
                 (A1G) (A2U) (E2G) (E2G) (E1G) (E1G) (A1G) (A2U)
                 (E2U) (E2U) (E2G) (E2G) (E1U) (E1U) (A1G) (A2U)
                 (E1G) (E1G) (A1G)
 The electronic state is 1-A1G.
 Alpha  occ. eigenvalues --  -15.53468 -15.35727 -15.35721  -1.20916  -0.98874
 Alpha  occ. eigenvalues --   -0.43047  -0.41659  -0.41659  -0.35464  -0.10574
 Alpha  occ. eigenvalues --   -0.10574
 Alpha virt. eigenvalues --    0.29316   0.30535   0.32295   0.32295   0.36585
 Alpha virt. eigenvalues --    0.40152   0.40152   0.43343   0.43343   0.45737
 Alpha virt. eigenvalues --    0.50352   0.50352   0.58571   0.63905   0.75427
 Alpha virt. eigenvalues --    1.07981   1.27196   1.31833   1.31833   1.38745
 Alpha virt. eigenvalues --    1.38745   1.44714   1.44714   1.46227   1.48821
 Alpha virt. eigenvalues --    1.81185   1.92840   1.92840   1.93792   1.93792
 Alpha virt. eigenvalues --    1.97088   2.04010   2.26412   2.26412   2.57731
 Alpha virt. eigenvalues --    2.57731   2.68276   2.68276   3.14881   3.42081
 Alpha virt. eigenvalues --    3.52318   3.52318   4.02199
          Condensed to atoms (all electrons):
 Mulliken charges:
               1
     1  H    0.000000
     2  H    0.000000
     3  H    0.000000
     4  H    0.000000
     5  H    0.000000
     6  H    0.000000
     7  H    0.000000
     8  H    0.000000
     9  H    0.000000
    10  H    0.000000
    11  C    0.000000
    12  C    0.000000
    13  C    0.000000
    14  C    0.000000
    15  C    0.000000
    16  C    0.000000
    17  C    0.000000
    18  C    0.000000
    19  C    0.000000
    20  C    0.000000
    21  C    0.000000
    22  C    0.000000
    23  C    0.000000
    24  C    0.000000
    25  C    0.000000
    26  C    0.000000
    27  C    0.000000
    28  C    0.000000
    29  C    0.000000
    30  C    0.000000
    31  C    0.000000
    32  C    0.000000
    33  C    0.000000
    34  C    0.000000
    35  C    0.000000
    36  C    0.000000
    37  C    0.000000
    38  C    0.000000
    39  C    0.000000
    40  C    0.000000
    41  C    0.000000
    42  C    0.000000
    43  C    0.000000
    44  C    0.000000
    45  C    0.000000
    46  C    0.000000
    47  C    0.000000
    48  C    0.000000
    49  C    0.000000
    50  C    0.000000
    51  C    0.000000
    52  C    0.000000
    53  C    0.000000
    54  C    0.000000
    55  C    0.000000
    56  C    0.000000
    57  C    0.000000
    58  C    0.000000
    59  C    0.000000
    60  C    0.000000
    61  C    0.000000
    62  C    0.000000
    63  C    0.000000
    64  C    0.000000
    65  C    0.000000
    66  C    0.000000
    67  C    0.000000
    68  C    0.000000
    69  C    0.000000
    70  C    0.000000
    71  C    0.000000
    72  C    0.000000
    73  C    0.000000
    74  C    0.000000
    75  C    0.000000
    76  C    0.000000
    77  C    0.000000
    78  C    0.000000
    79  C    0.000000
    80  C    0.000000
    81  C    0.000000
    82  C    0.000000
    83  C    0.000000
    84  C    0.000000
    85  C    0.000000
    86  C    0.000000
    87  C    0.000000
    88  C    0.000000
    89  C    0.000000
    90  C    0.000000
    91  C    0.000000
    92  C    0.000000
    93  C    0.000000
    94  C    0.000000
    95  C    0.000000
    96  C    0.000000
    97  C    0.000000
    98  C    0.000000
    99  C    0.000000
   100  C    0.000000
   101  C    0.000000
   102  C    0.000000
   103  C    0.000000
   104  C    0.000000
   105  C    0.000000
   106  C    0.000000
   107  C    0.000000
   108  C    0.000000
   109  C    0.000000
   110  C    0.000000
   111  C    0.000000
   112  C    0.000000
   113  C    0.000000
   114  C    0.000000
   115  C    0.000000
   116  C    0.000000
   117  C    0.000000
   118  C    0.000000
   119  C    0.000000
   120  C    0.000000
   121  C    0.000000
   122  C    0.000000
   123  C    0.000000
   124  C    0.000000
   125  C    0.000000
   126  C    0.000000
   127  C    0.000000
   128  C    0.000000
   129  C    0.000000
   130  C    0.000000
   131  H    0.000000
   132  H    0.000000
   133  H    0.000000
   134  H    0.000000
   135  H    0.000000
   136  H    0.000000
   137  H    0.000000
   138  H    0.000000
   139  H    0.000000
   140  H    0.000000
   141  N   -0.911055
   142  N    0.822109
   143  N   -0.911055
 Sum of Mulliken charges =  -1.00000
 Mulliken charges with hydrogens summed into heavy atoms:
               1
    11  C    0.000000
    12  C    0.000000
    13  C    0.000000
    14  C    0.000000
    15  C    0.000000
    16  C    0.000000
    17  C    0.000000
    18  C    0.000000
    19  C    0.000000
    20  C    0.000000
    21  C    0.000000
    22  C    0.000000
    23  C    0.000000
    24  C    0.000000
    25  C    0.000000
    26  C    0.000000
    27  C    0.000000
    28  C    0.000000
    29  C    0.000000
    30  C    0.000000
    31  C    0.000000
    32  C    0.000000
    33  C    0.000000
    34  C    0.000000
    35  C    0.000000
    36  C    0.000000
    37  C    0.000000
    38  C    0.000000
    39  C    0.000000
    40  C    0.000000
    41  C    0.000000
    42  C    0.000000
    43  C    0.000000
    44  C    0.000000
    45  C    0.000000
    46  C    0.000000
    47  C    0.000000
    48  C    0.000000
    49  C    0.000000
    50  C    0.000000
    51  C    0.000000
    52  C    0.000000
    53  C    0.000000
    54  C    0.000000
    55  C    0.000000
    56  C    0.000000
    57  C    0.000000
    58  C    0.000000
    59  C    0.000000
    60  C    0.000000
    61  C    0.000000
    62  C    0.000000
    63  C    0.000000
    64  C    0.000000
    65  C    0.000000
    66  C    0.000000
    67  C    0.000000
    68  C    0.000000
    69  C    0.000000
    70  C    0.000000
    71  C    0.000000
    72  C    0.000000
    73  C    0.000000
    74  C    0.000000
    75  C    0.000000
    76  C    0.000000
    77  C    0.000000
    78  C    0.000000
    79  C    0.000000
    80  C    0.000000
    81  C    0.000000
    82  C    0.000000
    83  C    0.000000
    84  C    0.000000
    85  C    0.000000
    86  C    0.000000
    87  C    0.000000
    88  C    0.000000
    89  C    0.000000
    90  C    0.000000
    91  C    0.000000
    92  C    0.000000
    93  C    0.000000
    94  C    0.000000
    95  C    0.000000
    96  C    0.000000
    97  C    0.000000
    98  C    0.000000
    99  C    0.000000
   100  C    0.000000
   101  C    0.000000
   102  C    0.000000
   103  C    0.000000
   104  C    0.000000
   105  C    0.000000
   106  C    0.000000
   107  C    0.000000
   108  C    0.000000
   109  C    0.000000
   110  C    0.000000
   111  C    0.000000
   112  C    0.000000
   113  C    0.000000
   114  C    0.000000
   115  C    0.000000
   116  C    0.000000
   117  C    0.000000
   118  C    0.000000
   119  C    0.000000
   120  C    0.000000
   121  C    0.000000
   122  C    0.000000
   123  C    0.000000
   124  C    0.000000
   125  C    0.000000
   126  C    0.000000
   127  C    0.000000
   128  C    0.000000
   129  C    0.000000
   130  C    0.000000
   141  N   -0.911055
   142  N    0.822109
   143  N   -0.911055
         Mulliken charges condensed to fragments:
      1      0.000000
      2     -1.000000
 Electronic spatial extent (au):  <R**2>=            124.1401
 Charge=             -1.0000 electrons
 Dipole moment (field-independent basis, Debye):
    X=              0.0000    Y=              0.0000    Z=              0.0000  Tot=              0.0000
 Quadrupole moment (field-independent basis, Debye-Ang):
   XX=            -19.8545   YY=            -19.8545   ZZ=            -31.9485
   XY=              0.0000   XZ=              0.0000   YZ=              0.0000
 Traceless Quadrupole moment (field-independent basis, Debye-Ang):
   XX=              4.0313   YY=              4.0313   ZZ=             -8.0627
   XY=              0.0000   XZ=              0.0000   YZ=              0.0000
 Octapole moment (field-independent basis, Debye-Ang**2):
  XXX=              0.0000  YYY=              0.0000  ZZZ=              0.0000  XYY=              0.0000
  XXY=              0.0000  XXZ=              0.0000  XZZ=              0.0000  YZZ=              0.0000
  YYZ=              0.0000  XYZ=              0.0000
 Hexadecapole moment (field-independent basis, Debye-Ang**3):
 XXXX=            -23.0109 YYYY=            -23.0109 ZZZZ=           -169.8842 XXXY=              0.0000
 XXXZ=              0.0000 YYYX=              0.0000 YYYZ=              0.0000 ZZZX=              0.0000
 ZZZY=              0.0000 XXYY=             -7.6703 XXZZ=            -31.7383 YYZZ=            -31.7383
 XXYZ=              0.0000 YYXZ=              0.0000 ZZXY=              0.0000
 N-N= 5.444845585592D+01 E-N=-4.975191473203D+02  KE= 1.626207924927D+02
 Symmetry AG   KE= 1.005998773548D+02
 Symmetry BG   KE= 3.129767176340D+00
 Symmetry AU   KE= 3.069239925027D+00
 Symmetry BU   KE= 5.582190803652D+01
 Leave Link  601 at Thu Jan 26 04:58:35 2017, MaxMem=  3623878656 cpu:         5.3
 (Enter /share/apps/gaussian/g09d01/nehalem/g09/l122.exe)
 CPIOFr:  IOpCl= 0 IRwI=-1 IRwCP=  731 ICalc=  4 LCPTot=     2181321 Len1MO=     5540400 IndFrg=    29883321
 Restoring MOs from calculation   1 to rwf.
 CPIOFr:  IOpCl= 0 IRwI=-2 IRwCP=  731 ICalc=  0 LCPTot=     2181321 Len1MO=     5540400 IndFrg=     7721721
 Counterpoise corrected energy =   -4728.981259198476
                   BSSE energy =       0.029765066782
               sum of monomers =   -4728.931669326790
           complexation energy =     -49.80 kcal/mole (raw)
           complexation energy =     -31.12 kcal/mole (corrected)
 Leave Link  122 at Thu Jan 26 04:58:36 2017, MaxMem=  3623878656 cpu:         1.8
 (Enter /share/apps/gaussian/g09d01/nehalem/g09/l9999.exe)
 1\1\GINC-COMPUTE-3-7\SP\RMP2-FC\Gen\C120H20N3(1-)\ROOT\26-Jan-2017\0\\
 #P mp2 Gen integral=ultrafine cachesize=131072 counterpoise=2\\N3- at 
 t555 eint\\-1,1\H,0,3.783594,0.051981,7.714212\H,0,-1.218632,-3.582349
 ,7.714212\H,0,1.119758,3.614475,7.714212\H,0,-1.119758,3.614475,7.7142
 12\H,0,-3.030438,-2.265995,7.714212\H,0,1.218632,-3.582349,7.714212\H,
 0,3.030438,-2.265995,7.714212\H,0,-3.091546,2.181887,7.714212\H,0,3.09
 1546,2.181887,7.714212\H,0,-3.783594,0.051981,7.714212\C,0,3.0906,-1.7
 23188,6.777129\C,0,3.513213,-0.422521,6.777129\C,0,2.593897,2.406841,6
 .777129\C,0,1.487484,3.210698,6.777129\C,0,-1.487484,3.210698,6.777129
 \C,0,-2.593897,2.406841,6.777129\C,0,-3.513213,-0.422521,6.777129\C,0,
 -3.0906,-1.723188,6.777129\C,0,-0.683801,-3.47183,6.777129\C,0,0.68380
 1,-3.47183,6.777129\C,0,0.716561,3.392449,5.566743\C,0,-0.716561,3.392
 449,5.566743\C,0,-3.004982,1.729814,5.566743\C,0,-3.44784,0.366835,5.5
 66743\C,0,-2.573741,-2.323365,5.566743\C,0,-1.414322,-3.165733,5.56674
 3\C,0,1.414322,-3.165733,5.566743\C,0,2.573741,-2.323365,5.566743\C,0,
 3.44784,0.366835,5.566743\C,0,3.004982,1.729814,5.566743\C,0,2.979255,
 -1.727061,4.334297\C,0,3.425409,-0.35394,4.334297\C,0,2.563173,2.29974
 9,4.334297\C,0,1.395127,3.148384,4.334297\C,0,-1.395127,3.148384,4.334
 297\C,0,-2.563173,2.299749,4.334297\C,0,-3.425409,-0.35394,4.334297\C,
 0,-2.979255,-1.727061,4.334297\C,0,-0.721892,-3.367131,4.334297\C,0,0.
 721892,-3.367131,4.334297\C,0,0.710658,3.35691,3.096992\C,0,-0.710658,
 3.35691,3.096992\C,0,-2.973006,1.713218,3.096992\C,0,-3.412216,0.36146
 6,3.096992\C,0,-2.548077,-2.298083,3.096992\C,0,-1.398208,-3.133512,3.
 096992\C,0,1.398208,-3.133512,3.096992\C,0,2.548077,-2.298083,3.096992
 \C,0,3.412216,0.361466,3.096992\C,0,2.973006,1.713218,3.096992\C,0,2.9
 75638,-1.712521,1.853068\C,0,3.413936,-0.363578,1.853068\C,0,2.548227,
 2.300802,1.853068\C,0,1.400747,3.134494,1.853068\C,0,-1.400747,3.13449
 4,1.853068\C,0,-2.548227,2.300802,1.853068\C,0,-3.413936,-0.363578,1.8
 53068\C,0,-2.975638,-1.712521,1.853068\C,0,-0.709181,-3.359198,1.85306
 8\C,0,0.709181,-3.359198,1.853068\C,0,0.717111,3.373395,0.615193\C,0,-
 0.717111,3.373395,0.615193\C,0,1.402677,-3.150641,0.615193\C,0,2.56298
 7,-2.307626,0.615193\C,0,3.429889,0.360423,0.615193\C,0,2.98669,1.7244
 5,0.615193\C,0,-2.98669,1.72445,0.615193\C,0,-3.429889,0.360423,0.6151
 93\C,0,-2.562987,-2.307626,0.615193\C,0,-1.402677,-3.150641,0.615193\C
 ,0,2.98669,-1.72445,-0.615193\C,0,3.429889,-0.360423,-0.615193\C,0,2.5
 62987,2.307626,-0.615193\C,0,1.402677,3.150641,-0.615193\C,0,-1.402677
 ,3.150641,-0.615193\C,0,-2.562987,2.307626,-0.615193\C,0,-3.429889,-0.
 360423,-0.615193\C,0,-2.98669,-1.72445,-0.615193\C,0,-0.717111,-3.3733
 95,-0.615193\C,0,0.717111,-3.373395,-0.615193\C,0,0.709181,3.359198,-1
 .853068\C,0,-0.709181,3.359198,-1.853068\C,0,-2.975638,1.712521,-1.853
 068\C,0,-3.413936,0.363578,-1.853068\C,0,-2.548227,-2.300802,-1.853068
 \C,0,-1.400747,-3.134494,-1.853068\C,0,1.400747,-3.134494,-1.853068\C,
 0,2.548227,-2.300802,-1.853068\C,0,3.413936,0.363578,-1.853068\C,0,2.9
 75638,1.712521,-1.853068\C,0,2.973006,-1.713218,-3.096992\C,0,3.412216
 ,-0.361466,-3.096992\C,0,2.548077,2.298083,-3.096992\C,0,1.398208,3.13
 3512,-3.096992\C,0,-1.398208,3.133512,-3.096992\C,0,-2.548077,2.298083
 ,-3.096992\C,0,-3.412216,-0.361466,-3.096992\C,0,-2.973006,-1.713218,-
 3.096992\C,0,-0.710658,-3.35691,-3.096992\C,0,0.710658,-3.35691,-3.096
 992\C,0,1.395127,-3.148384,-4.334297\C,0,2.563173,-2.299749,-4.334297\
 C,0,3.425409,0.35394,-4.334297\C,0,2.979255,1.727061,-4.334297\C,0,0.7
 21892,3.367131,-4.334297\C,0,-0.721892,3.367131,-4.334297\C,0,-2.97925
 5,1.727061,-4.334297\C,0,-3.425409,0.35394,-4.334297\C,0,-2.563173,-2.
 299749,-4.334297\C,0,-1.395127,-3.148384,-4.334297\C,0,3.004982,-1.729
 814,-5.566743\C,0,3.44784,-0.366835,-5.566743\C,0,2.573741,2.323365,-5
 .566743\C,0,1.414322,3.165733,-5.566743\C,0,-1.414322,3.165733,-5.5667
 43\C,0,-2.573741,2.323365,-5.566743\C,0,-3.44784,-0.366835,-5.566743\C
 ,0,-3.004982,-1.729814,-5.566743\C,0,-0.716561,-3.392449,-5.566743\C,0
 ,0.716561,-3.392449,-5.566743\C,0,0.683801,3.47183,-6.777129\C,0,-0.68
 3801,3.47183,-6.777129\C,0,-3.0906,1.723188,-6.777129\C,0,-3.513213,0.
 422521,-6.777129\C,0,-2.593897,-2.406841,-6.777129\C,0,-1.487484,-3.21
 0698,-6.777129\C,0,1.487484,-3.210698,-6.777129\C,0,2.593897,-2.406841
 ,-6.777129\C,0,3.513213,0.422521,-6.777129\C,0,3.0906,1.723188,-6.7771
 29\H,0,1.218632,3.582349,-7.714212\H,0,-1.218632,3.582349,-7.714212\H,
 0,-3.030438,2.265995,-7.714212\H,0,-3.783594,-0.051981,-7.714212\H,0,-
 3.091546,-2.181887,-7.714212\H,0,-1.119758,-3.614475,-7.714212\H,0,1.1
 19758,-3.614475,-7.714212\H,0,3.091546,-2.181887,-7.714212\H,0,3.78359
 4,-0.051981,-7.714212\H,0,3.030438,2.265995,-7.714212\N,0,0.,0.,-1.190
 561\N,0,0.,0.,0.\N,0,0.,0.,1.190561\\Version=ES64L-G09RevD.01\State=1-
 A1G\HF=-163.2775638\MP2=-163.8135647\RMSD=7.666e-09\PG=D05D [O(N1),C5(
 N1.N1),X(C120H20)]\\@


       THE DEATH-KNELL OF THE ATOM

 SO THE ATOMS IN TURN, WE NOW CLEARLY DISCERN,
 FLY TO BITS WITH THE UTMOST FACILITY;
 THEY WEND ON THEIR WAY, AND, IN SPLITTING, DISPLAY
 AN ABSOLUTE LACK OF STABILITY.

          SIR WM. RAMSAY, 1905
 Job cpu time:       4 days 15 hours 56 minutes 24.8 seconds.
 File lengths (MBytes):  RWF= 456949 Int=      0 D2E=      0 Chk=    294 Scr=      1
 Normal termination of Gaussian 09 at Thu Jan 26 04:58:37 2017.
