 Entering Gaussian System, Link 0=g09
 Initial command:
 /share/apps/gaussian/g09d01/nehalem/g09/l1.exe "/state/partition2/219399/Gau-14363.inp" -scrdir="/state/partition2/219399/"
 Entering Link 1 = /share/apps/gaussian/g09d01/nehalem/g09/l1.exe PID=     14364.
  
 Copyright (c) 1988,1990,1992,1993,1995,1998,2003,2009,2013,
            Gaussian, Inc.  All Rights Reserved.
  
 This is part of the Gaussian(R) 09 program.  It is based on
 the Gaussian(R) 03 system (copyright 2003, Gaussian, Inc.),
 the Gaussian(R) 98 system (copyright 1998, Gaussian, Inc.),
 the Gaussian(R) 94 system (copyright 1995, Gaussian, Inc.),
 the Gaussian 92(TM) system (copyright 1992, Gaussian, Inc.),
 the Gaussian 90(TM) system (copyright 1990, Gaussian, Inc.),
 the Gaussian 88(TM) system (copyright 1988, Gaussian, Inc.),
 the Gaussian 86(TM) system (copyright 1986, Carnegie Mellon
 University), and the Gaussian 82(TM) system (copyright 1983,
 Carnegie Mellon University). Gaussian is a federally registered
 trademark of Gaussian, Inc.
  
 This software contains proprietary and confidential information,
 including trade secrets, belonging to Gaussian, Inc.
  
 This software is provided under written license and may be
 used, copied, transmitted, or stored only in accord with that
 written license.
  
 The following legend is applicable only to US Government
 contracts under FAR:
  
                    RESTRICTED RIGHTS LEGEND
  
 Use, reproduction and disclosure by the US Government is
 subject to restrictions as set forth in subparagraphs (a)
 and (c) of the Commercial Computer Software - Restricted
 Rights clause in FAR 52.227-19.
  
 Gaussian, Inc.
 340 Quinnipiac St., Bldg. 40, Wallingford CT 06492
  
  
 ---------------------------------------------------------------
 Warning -- This program may not be used in any manner that
 competes with the business of Gaussian, Inc. or will provide
 assistance to any competitor of Gaussian, Inc.  The licensee
 of this program is prohibited from giving any competitor of
 Gaussian, Inc. access to this program.  By using this program,
 the user acknowledges that Gaussian, Inc. is engaged in the
 business of creating and licensing software in the field of
 computational chemistry and represents and warrants to the
 licensee that it is not a competitor of Gaussian, Inc. and that
 it will not use this program in any manner prohibited above.
 ---------------------------------------------------------------
  

 Cite this work as:
 Gaussian 09, Revision D.01,
 M. J. Frisch, G. W. Trucks, H. B. Schlegel, G. E. Scuseria, 
 M. A. Robb, J. R. Cheeseman, G. Scalmani, V. Barone, B. Mennucci, 
 G. A. Petersson, H. Nakatsuji, M. Caricato, X. Li, H. P. Hratchian, 
 A. F. Izmaylov, J. Bloino, G. Zheng, J. L. Sonnenberg, M. Hada, 
 M. Ehara, K. Toyota, R. Fukuda, J. Hasegawa, M. Ishida, T. Nakajima, 
 Y. Honda, O. Kitao, H. Nakai, T. Vreven, J. A. Montgomery, Jr., 
 J. E. Peralta, F. Ogliaro, M. Bearpark, J. J. Heyd, E. Brothers, 
 K. N. Kudin, V. N. Staroverov, T. Keith, R. Kobayashi, J. Normand, 
 K. Raghavachari, A. Rendell, J. C. Burant, S. S. Iyengar, J. Tomasi, 
 M. Cossi, N. Rega, J. M. Millam, M. Klene, J. E. Knox, J. B. Cross, 
 V. Bakken, C. Adamo, J. Jaramillo, R. Gomperts, R. E. Stratmann, 
 O. Yazyev, A. J. Austin, R. Cammi, C. Pomelli, J. W. Ochterski, 
 R. L. Martin, K. Morokuma, V. G. Zakrzewski, G. A. Voth, 
 P. Salvador, J. J. Dannenberg, S. Dapprich, A. D. Daniels, 
 O. Farkas, J. B. Foresman, J. V. Ortiz, J. Cioslowski, 
 and D. J. Fox, Gaussian, Inc., Wallingford CT, 2013.
 
 ******************************************
 Gaussian 09:  ES64L-G09RevD.01 24-Apr-2013
                30-Jan-2017 
 ******************************************
 %Chk=n3_t555_mp2_6-31g_eint_1
 %NProcShared=12
 Will use up to   12 processors via shared memory.
 %Mem=16Gb
 ----------------------------------------------------------------------
 #P maxdisk=250gb mp2 Gen integral=ultrafine cachesize=131072 symmetry=
 none counterpoise=2
 ----------------------------------------------------------------------
 1/4=131072,38=1,62=2/1;
 2/4=131072,12=2,15=3,17=6,18=5,40=1/2;
 1/4=131072,38=1,53=2,62=2,63=1/22;
 3/4=131072,5=7,11=9,16=1,25=1,30=1,75=-5/1,2,3;
 4/4=131072/1;
 5/4=131072,5=2,38=5/2;
 8/4=131072,10=1/1;
 9/4=131072,16=-3/6;
 6/4=131072,7=2,8=2,9=2,10=2/1;
 1/4=131072,53=2,62=2,63=1/22;
 3/4=131072,5=7,6=11,11=9,16=1,25=1,30=1,75=-5,82=7/1,2,3;
 4/4=131072/1;
 5/4=131072,5=2,38=5/2;
 8/4=131072,10=1/1;
 9/4=131072,16=-3/6;
 6/4=131072,7=2,8=2,9=2,10=2/1;
 1/4=131072,53=2,62=2,63=1/22(-6);
 99/4=131072,5=1,9=1/99;
 Leave Link    1 at Mon Jan 30 17:45:16 2017, MaxMem=  2147483648 cpu:         1.3
 (Enter /share/apps/gaussian/g09d01/nehalem/g09/l101.exe)
 ------------------------
 N3- at t555 eint relaxed
 ------------------------
 Symbolic Z-matrix:
 Charge = -1 Multiplicity = 1 in supermolecule
 Charge =  0 Multiplicity = 1 in fragment      1.
 Charge = -1 Multiplicity = 1 in fragment      2.
 H(Fragment=1)         3.78519   0.05758   7.68727 
 H(Fragment=1)        -1.19725  -3.56456   7.68695 
 H(Fragment=1)         1.12987   3.59986   7.68679 
 H(Fragment=1)        -1.08797   3.59977   7.68685 
 H(Fragment=1)        -2.9901   -2.25914   7.68724 
 H(Fragment=1)         1.23914  -3.56429   7.68709 
 H(Fragment=1)         3.03235  -2.25948   7.68737 
 H(Fragment=1)        -3.05885   2.16711   7.68697 
 H(Fragment=1)         3.10009   2.16649   7.68715 
 H(Fragment=1)        -3.74351   0.05792   7.68705 
 C(Fragment=1)         3.09786  -1.71805   6.74876 
 C(Fragment=1)         3.5199   -0.41904   6.74872 
 C(Fragment=1)         2.60505   2.39583   6.74866 
 C(Fragment=1)         1.50067   3.19917   6.74853 
 C(Fragment=1)        -1.45876   3.19896   6.74863 
 C(Fragment=1)        -2.56324   2.39607   6.7487 
 C(Fragment=1)        -3.47733  -0.41868   6.74875 
 C(Fragment=1)        -3.05512  -1.71734   6.74881 
 C(Fragment=1)        -0.6619   -3.45876   6.74853 
 C(Fragment=1)         0.70391  -3.45868   6.74857 
 C(Fragment=1)         0.73436   3.3799    5.54175 
 C(Fragment=1)        -0.69235   3.38005   5.54168 
 C(Fragment=1)        -2.97202   1.72289   5.54177 
 C(Fragment=1)        -3.41259   0.36599   5.54185 
 C(Fragment=1)        -2.54199  -2.31474   5.54202 
 C(Fragment=1)        -1.38804  -3.154     5.54206 
 C(Fragment=1)         1.43048  -3.15446   5.54223 
 C(Fragment=1)         2.58474  -2.31528   5.54234 
 C(Fragment=1)         3.4552    0.36561   5.54226 
 C(Fragment=1)         3.01425   1.72275   5.5421 
 C(Fragment=1)         2.98502  -1.71854   4.31382 
 C(Fragment=1)         3.42807  -0.35251   4.31372 
 C(Fragment=1)         2.57156   2.28855   4.3137 
 C(Fragment=1)         1.40916   3.13194   4.31342 
 C(Fragment=1)        -1.36761   3.13364   4.31351 
 C(Fragment=1)        -2.52921   2.28903   4.31352 
 C(Fragment=1)        -3.38608  -0.35239   4.31355 
 C(Fragment=1)        -2.9434   -1.71867   4.31375 
 C(Fragment=1)        -0.69658  -3.35004   4.31356 
 C(Fragment=1)         0.73952  -3.35115   4.31372 
 C(Fragment=1)         0.72752   3.33499   3.08013 
 C(Fragment=1)        -0.68651   3.33784   3.08001 
 C(Fragment=1)        -2.93325   1.70384   3.08009 
 C(Fragment=1)        -3.36859   0.35854   3.08018 
 C(Fragment=1)        -2.51379  -2.28536   3.08018 
 C(Fragment=1)        -1.36778  -3.11421   3.08029 
 C(Fragment=1)         1.41162  -3.11787   3.08027 
 C(Fragment=1)         2.55557  -2.28563   3.08034 
 C(Fragment=1)         3.41237   0.35866   3.08032 
 C(Fragment=1)         2.978     1.70482   3.08017 
 C(Fragment=1)         2.9785   -1.70319   1.84276 
 C(Fragment=1)         3.41115  -0.36141   1.8426 
 C(Fragment=1)         2.55716   2.28869   1.84249 
 C(Fragment=1)         1.41237   3.11155   1.84205 
 C(Fragment=1)        -1.37226   3.11805   1.84198 
 C(Fragment=1)        -2.51169   2.28783   1.84191 
 C(Fragment=1)        -3.36863  -0.36184   1.84199 
 C(Fragment=1)        -2.93918  -1.70465   1.84236 
 C(Fragment=1)        -0.68232  -3.33524   1.84241 
 C(Fragment=1)         0.72743  -3.34108   1.84272 
 C(Fragment=1)         0.73273   3.34708   0.61008 
 C(Fragment=1)        -0.69237   3.35108   0.61019 
 C(Fragment=1)         1.41467  -3.13091   0.6104 
 C(Fragment=1)         2.5666   -2.29242   0.61037 
 C(Fragment=1)         3.42476   0.35759   0.61025 
 C(Fragment=1)         2.98861   1.71409   0.61038 
 C(Fragment=1)        -2.94387   1.7133    0.61013 
 C(Fragment=1)        -3.38214   0.35717   0.61008 
 C(Fragment=1)        -2.52615  -2.29265   0.61035 
 C(Fragment=1)        -1.37062  -3.12652   0.61018 
 C(Fragment=1)         2.9863   -1.71352  -0.61464 
 C(Fragment=1)         3.42448  -0.3573   -0.61452 
 C(Fragment=1)         2.56849   2.29293  -0.6148 
 C(Fragment=1)         1.41277   3.12662  -0.61451 
 C(Fragment=1)        -1.37285   3.13127  -0.6148 
 C(Fragment=1)        -2.52471   2.29262  -0.61475 
 C(Fragment=1)        -3.38307  -0.35779  -0.61457 
 C(Fragment=1)        -2.9471   -1.71441  -0.6148 
 C(Fragment=1)        -0.69072  -3.34738  -0.61447 
 C(Fragment=1)         0.73444  -3.35155  -0.61469 
 C(Fragment=1)         0.72438   3.33589  -1.84662 
 C(Fragment=1)        -0.68536   3.3414   -1.84693 
 C(Fragment=1)        -2.93663   1.7031   -1.84698 
 C(Fragment=1)        -3.36948   0.36147  -1.84681 
 C(Fragment=1)        -2.51538  -2.28901  -1.84665 
 C(Fragment=1)        -1.37075  -3.11227  -1.84623 
 C(Fragment=1)         1.41441  -3.11849  -1.84616 
 C(Fragment=1)         2.55417  -2.28822  -1.84609 
 C(Fragment=1)         3.41152   0.36192  -1.84614 
 C(Fragment=1)         2.98149   1.70478  -1.84651 
 C(Fragment=1)         2.97543  -1.70394  -3.08449 
 C(Fragment=1)         3.41111  -0.35845  -3.08456 
 C(Fragment=1)         2.55581   2.28544  -3.08463 
 C(Fragment=1)         1.40987   3.11481  -3.08477 
 C(Fragment=1)        -1.3696    3.11801  -3.08488 
 C(Fragment=1)        -2.51371   2.28568  -3.08495 
 C(Fragment=1)        -3.3708   -0.35862  -3.08488 
 C(Fragment=1)        -2.93608  -1.70489  -3.0847 
 C(Fragment=1)        -0.68584  -3.33559  -3.08455 
 C(Fragment=1)         0.72847  -3.338    -3.08443 
 C(Fragment=1)         1.4096   -3.1338   -4.31804 
 C(Fragment=1)         2.57131  -2.28911  -4.31805 
 C(Fragment=1)         3.42847   0.35251  -4.31807 
 C(Fragment=1)         2.98561   1.71886  -4.31827 
 C(Fragment=1)         0.73866   3.35063  -4.31813 
 C(Fragment=1)        -0.69756   3.35156  -4.31832 
 C(Fragment=1)        -2.94336   1.71869  -4.31842 
 C(Fragment=1)        -3.38655   0.35257  -4.31832 
 C(Fragment=1)        -2.52987  -2.28881  -4.31825 
 C(Fragment=1)        -1.36748  -3.13244  -4.31797 
 C(Fragment=1)         3.01409  -1.72281  -5.54632 
 C(Fragment=1)         3.45475  -0.36595  -5.54639 
 C(Fragment=1)         2.58396   2.31496  -5.54661 
 C(Fragment=1)         1.43015   3.15424  -5.54667 
 C(Fragment=1)        -1.38857   3.15442  -5.54694 
 C(Fragment=1)        -2.54267   2.31534  -5.54704 
 C(Fragment=1)        -3.41335  -0.36569  -5.54692 
 C(Fragment=1)        -2.97241  -1.72269  -5.54675 
 C(Fragment=1)        -0.6925   -3.38016  -5.54633 
 C(Fragment=1)         0.73419  -3.38015  -5.54625 
 C(Fragment=1)         0.70387   3.45894  -6.75318 
 C(Fragment=1)        -0.6619    3.45883  -6.7533 
 C(Fragment=1)        -3.05598   1.71804  -6.75349 
 C(Fragment=1)        -3.47802   0.4191   -6.75342 
 C(Fragment=1)        -2.56326  -2.39595  -6.7533 
 C(Fragment=1)        -1.45888  -3.19925  -6.7531 
 C(Fragment=1)         1.5007   -3.19897  -6.75314 
 C(Fragment=1)         2.60518  -2.39604  -6.7532 
 C(Fragment=1)         3.51937   0.41884  -6.75327 
 C(Fragment=1)         3.09724   1.71753  -6.75338 
 H(Fragment=1)         1.23928   3.56502  -7.69154 
 H(Fragment=1)        -1.19712   3.56468  -7.69179 
 H(Fragment=1)        -2.99076   2.2596   -7.69205 
 H(Fragment=1)        -3.74365  -0.05748  -7.6919 
 H(Fragment=1)        -3.05839  -2.16675  -7.69177 
 H(Fragment=1)        -1.08816  -3.60008  -7.69134 
 H(Fragment=1)         1.13002  -3.59988  -7.69137 
 H(Fragment=1)         3.10083  -2.16718  -7.69147 
 H(Fragment=1)         3.78565  -0.05772  -7.69156 
 H(Fragment=1)         3.03238   2.25936  -7.69179 
 N(Fragment=2)         0.02062  -0.00505  -1.07911 
 N(Fragment=2)         0.02071  -0.00024   0.10483 
 N(Fragment=2)         0.02033   0.0045    1.28883 
 
 NAtoms=    143 NQM=      143 NQMF=       0 NMMI=      0 NMMIF=      0
                NMic=       0 NMicF=      0.
                    Isotopes and Nuclear Properties:
 (Nuclear quadrupole moments (NQMom) in fm**2, nuclear magnetic moments (NMagM)
  in nuclear magnetons)

  Atom         1           2           3           4           5           6           7           8           9          10
 IAtWgt=           1           1           1           1           1           1           1           1           1           1
 AtmWgt=   1.0078250   1.0078250   1.0078250   1.0078250   1.0078250   1.0078250   1.0078250   1.0078250   1.0078250   1.0078250
 NucSpn=           1           1           1           1           1           1           1           1           1           1
 AtZEff=   0.0000000   0.0000000   0.0000000   0.0000000   0.0000000   0.0000000   0.0000000   0.0000000   0.0000000   0.0000000
 NQMom=    0.0000000   0.0000000   0.0000000   0.0000000   0.0000000   0.0000000   0.0000000   0.0000000   0.0000000   0.0000000
 NMagM=    2.7928460   2.7928460   2.7928460   2.7928460   2.7928460   2.7928460   2.7928460   2.7928460   2.7928460   2.7928460
 AtZNuc=   1.0000000   1.0000000   1.0000000   1.0000000   1.0000000   1.0000000   1.0000000   1.0000000   1.0000000   1.0000000

  Atom        11          12          13          14          15          16          17          18          19          20
 IAtWgt=          12          12          12          12          12          12          12          12          12          12
 AtmWgt=  12.0000000  12.0000000  12.0000000  12.0000000  12.0000000  12.0000000  12.0000000  12.0000000  12.0000000  12.0000000
 NucSpn=           0           0           0           0           0           0           0           0           0           0
 AtZEff=   0.0000000   0.0000000   0.0000000   0.0000000   0.0000000   0.0000000   0.0000000   0.0000000   0.0000000   0.0000000
 NQMom=    0.0000000   0.0000000   0.0000000   0.0000000   0.0000000   0.0000000   0.0000000   0.0000000   0.0000000   0.0000000
 NMagM=    0.0000000   0.0000000   0.0000000   0.0000000   0.0000000   0.0000000   0.0000000   0.0000000   0.0000000   0.0000000
 AtZNuc=   6.0000000   6.0000000   6.0000000   6.0000000   6.0000000   6.0000000   6.0000000   6.0000000   6.0000000   6.0000000

  Atom        21          22          23          24          25          26          27          28          29          30
 IAtWgt=          12          12          12          12          12          12          12          12          12          12
 AtmWgt=  12.0000000  12.0000000  12.0000000  12.0000000  12.0000000  12.0000000  12.0000000  12.0000000  12.0000000  12.0000000
 NucSpn=           0           0           0           0           0           0           0           0           0           0
 AtZEff=   0.0000000   0.0000000   0.0000000   0.0000000   0.0000000   0.0000000   0.0000000   0.0000000   0.0000000   0.0000000
 NQMom=    0.0000000   0.0000000   0.0000000   0.0000000   0.0000000   0.0000000   0.0000000   0.0000000   0.0000000   0.0000000
 NMagM=    0.0000000   0.0000000   0.0000000   0.0000000   0.0000000   0.0000000   0.0000000   0.0000000   0.0000000   0.0000000
 AtZNuc=   6.0000000   6.0000000   6.0000000   6.0000000   6.0000000   6.0000000   6.0000000   6.0000000   6.0000000   6.0000000

  Atom        31          32          33          34          35          36          37          38          39          40
 IAtWgt=          12          12          12          12          12          12          12          12          12          12
 AtmWgt=  12.0000000  12.0000000  12.0000000  12.0000000  12.0000000  12.0000000  12.0000000  12.0000000  12.0000000  12.0000000
 NucSpn=           0           0           0           0           0           0           0           0           0           0
 AtZEff=   0.0000000   0.0000000   0.0000000   0.0000000   0.0000000   0.0000000   0.0000000   0.0000000   0.0000000   0.0000000
 NQMom=    0.0000000   0.0000000   0.0000000   0.0000000   0.0000000   0.0000000   0.0000000   0.0000000   0.0000000   0.0000000
 NMagM=    0.0000000   0.0000000   0.0000000   0.0000000   0.0000000   0.0000000   0.0000000   0.0000000   0.0000000   0.0000000
 AtZNuc=   6.0000000   6.0000000   6.0000000   6.0000000   6.0000000   6.0000000   6.0000000   6.0000000   6.0000000   6.0000000

  Atom        41          42          43          44          45          46          47          48          49          50
 IAtWgt=          12          12          12          12          12          12          12          12          12          12
 AtmWgt=  12.0000000  12.0000000  12.0000000  12.0000000  12.0000000  12.0000000  12.0000000  12.0000000  12.0000000  12.0000000
 NucSpn=           0           0           0           0           0           0           0           0           0           0
 AtZEff=   0.0000000   0.0000000   0.0000000   0.0000000   0.0000000   0.0000000   0.0000000   0.0000000   0.0000000   0.0000000
 NQMom=    0.0000000   0.0000000   0.0000000   0.0000000   0.0000000   0.0000000   0.0000000   0.0000000   0.0000000   0.0000000
 NMagM=    0.0000000   0.0000000   0.0000000   0.0000000   0.0000000   0.0000000   0.0000000   0.0000000   0.0000000   0.0000000
 AtZNuc=   6.0000000   6.0000000   6.0000000   6.0000000   6.0000000   6.0000000   6.0000000   6.0000000   6.0000000   6.0000000

  Atom        51          52          53          54          55          56          57          58          59          60
 IAtWgt=          12          12          12          12          12          12          12          12          12          12
 AtmWgt=  12.0000000  12.0000000  12.0000000  12.0000000  12.0000000  12.0000000  12.0000000  12.0000000  12.0000000  12.0000000
 NucSpn=           0           0           0           0           0           0           0           0           0           0
 AtZEff=   0.0000000   0.0000000   0.0000000   0.0000000   0.0000000   0.0000000   0.0000000   0.0000000   0.0000000   0.0000000
 NQMom=    0.0000000   0.0000000   0.0000000   0.0000000   0.0000000   0.0000000   0.0000000   0.0000000   0.0000000   0.0000000
 NMagM=    0.0000000   0.0000000   0.0000000   0.0000000   0.0000000   0.0000000   0.0000000   0.0000000   0.0000000   0.0000000
 AtZNuc=   6.0000000   6.0000000   6.0000000   6.0000000   6.0000000   6.0000000   6.0000000   6.0000000   6.0000000   6.0000000

  Atom        61          62          63          64          65          66          67          68          69          70
 IAtWgt=          12          12          12          12          12          12          12          12          12          12
 AtmWgt=  12.0000000  12.0000000  12.0000000  12.0000000  12.0000000  12.0000000  12.0000000  12.0000000  12.0000000  12.0000000
 NucSpn=           0           0           0           0           0           0           0           0           0           0
 AtZEff=   0.0000000   0.0000000   0.0000000   0.0000000   0.0000000   0.0000000   0.0000000   0.0000000   0.0000000   0.0000000
 NQMom=    0.0000000   0.0000000   0.0000000   0.0000000   0.0000000   0.0000000   0.0000000   0.0000000   0.0000000   0.0000000
 NMagM=    0.0000000   0.0000000   0.0000000   0.0000000   0.0000000   0.0000000   0.0000000   0.0000000   0.0000000   0.0000000
 AtZNuc=   6.0000000   6.0000000   6.0000000   6.0000000   6.0000000   6.0000000   6.0000000   6.0000000   6.0000000   6.0000000

  Atom        71          72          73          74          75          76          77          78          79          80
 IAtWgt=          12          12          12          12          12          12          12          12          12          12
 AtmWgt=  12.0000000  12.0000000  12.0000000  12.0000000  12.0000000  12.0000000  12.0000000  12.0000000  12.0000000  12.0000000
 NucSpn=           0           0           0           0           0           0           0           0           0           0
 AtZEff=   0.0000000   0.0000000   0.0000000   0.0000000   0.0000000   0.0000000   0.0000000   0.0000000   0.0000000   0.0000000
 NQMom=    0.0000000   0.0000000   0.0000000   0.0000000   0.0000000   0.0000000   0.0000000   0.0000000   0.0000000   0.0000000
 NMagM=    0.0000000   0.0000000   0.0000000   0.0000000   0.0000000   0.0000000   0.0000000   0.0000000   0.0000000   0.0000000
 AtZNuc=   6.0000000   6.0000000   6.0000000   6.0000000   6.0000000   6.0000000   6.0000000   6.0000000   6.0000000   6.0000000

  Atom        81          82          83          84          85          86          87          88          89          90
 IAtWgt=          12          12          12          12          12          12          12          12          12          12
 AtmWgt=  12.0000000  12.0000000  12.0000000  12.0000000  12.0000000  12.0000000  12.0000000  12.0000000  12.0000000  12.0000000
 NucSpn=           0           0           0           0           0           0           0           0           0           0
 AtZEff=   0.0000000   0.0000000   0.0000000   0.0000000   0.0000000   0.0000000   0.0000000   0.0000000   0.0000000   0.0000000
 NQMom=    0.0000000   0.0000000   0.0000000   0.0000000   0.0000000   0.0000000   0.0000000   0.0000000   0.0000000   0.0000000
 NMagM=    0.0000000   0.0000000   0.0000000   0.0000000   0.0000000   0.0000000   0.0000000   0.0000000   0.0000000   0.0000000
 AtZNuc=   6.0000000   6.0000000   6.0000000   6.0000000   6.0000000   6.0000000   6.0000000   6.0000000   6.0000000   6.0000000

  Atom        91          92          93          94          95          96          97          98          99         100
 IAtWgt=          12          12          12          12          12          12          12          12          12          12
 AtmWgt=  12.0000000  12.0000000  12.0000000  12.0000000  12.0000000  12.0000000  12.0000000  12.0000000  12.0000000  12.0000000
 NucSpn=           0           0           0           0           0           0           0           0           0           0
 AtZEff=   0.0000000   0.0000000   0.0000000   0.0000000   0.0000000   0.0000000   0.0000000   0.0000000   0.0000000   0.0000000
 NQMom=    0.0000000   0.0000000   0.0000000   0.0000000   0.0000000   0.0000000   0.0000000   0.0000000   0.0000000   0.0000000
 NMagM=    0.0000000   0.0000000   0.0000000   0.0000000   0.0000000   0.0000000   0.0000000   0.0000000   0.0000000   0.0000000
 AtZNuc=   6.0000000   6.0000000   6.0000000   6.0000000   6.0000000   6.0000000   6.0000000   6.0000000   6.0000000   6.0000000

  Atom       101         102         103         104         105         106         107         108         109         110
 IAtWgt=          12          12          12          12          12          12          12          12          12          12
 AtmWgt=  12.0000000  12.0000000  12.0000000  12.0000000  12.0000000  12.0000000  12.0000000  12.0000000  12.0000000  12.0000000
 NucSpn=           0           0           0           0           0           0           0           0           0           0
 AtZEff=   0.0000000   0.0000000   0.0000000   0.0000000   0.0000000   0.0000000   0.0000000   0.0000000   0.0000000   0.0000000
 NQMom=    0.0000000   0.0000000   0.0000000   0.0000000   0.0000000   0.0000000   0.0000000   0.0000000   0.0000000   0.0000000
 NMagM=    0.0000000   0.0000000   0.0000000   0.0000000   0.0000000   0.0000000   0.0000000   0.0000000   0.0000000   0.0000000
 AtZNuc=   6.0000000   6.0000000   6.0000000   6.0000000   6.0000000   6.0000000   6.0000000   6.0000000   6.0000000   6.0000000

  Atom       111         112         113         114         115         116         117         118         119         120
 IAtWgt=          12          12          12          12          12          12          12          12          12          12
 AtmWgt=  12.0000000  12.0000000  12.0000000  12.0000000  12.0000000  12.0000000  12.0000000  12.0000000  12.0000000  12.0000000
 NucSpn=           0           0           0           0           0           0           0           0           0           0
 AtZEff=   0.0000000   0.0000000   0.0000000   0.0000000   0.0000000   0.0000000   0.0000000   0.0000000   0.0000000   0.0000000
 NQMom=    0.0000000   0.0000000   0.0000000   0.0000000   0.0000000   0.0000000   0.0000000   0.0000000   0.0000000   0.0000000
 NMagM=    0.0000000   0.0000000   0.0000000   0.0000000   0.0000000   0.0000000   0.0000000   0.0000000   0.0000000   0.0000000
 AtZNuc=   6.0000000   6.0000000   6.0000000   6.0000000   6.0000000   6.0000000   6.0000000   6.0000000   6.0000000   6.0000000

  Atom       121         122         123         124         125         126         127         128         129         130
 IAtWgt=          12          12          12          12          12          12          12          12          12          12
 AtmWgt=  12.0000000  12.0000000  12.0000000  12.0000000  12.0000000  12.0000000  12.0000000  12.0000000  12.0000000  12.0000000
 NucSpn=           0           0           0           0           0           0           0           0           0           0
 AtZEff=   0.0000000   0.0000000   0.0000000   0.0000000   0.0000000   0.0000000   0.0000000   0.0000000   0.0000000   0.0000000
 NQMom=    0.0000000   0.0000000   0.0000000   0.0000000   0.0000000   0.0000000   0.0000000   0.0000000   0.0000000   0.0000000
 NMagM=    0.0000000   0.0000000   0.0000000   0.0000000   0.0000000   0.0000000   0.0000000   0.0000000   0.0000000   0.0000000
 AtZNuc=   6.0000000   6.0000000   6.0000000   6.0000000   6.0000000   6.0000000   6.0000000   6.0000000   6.0000000   6.0000000

  Atom       131         132         133         134         135         136         137         138         139         140
 IAtWgt=           1           1           1           1           1           1           1           1           1           1
 AtmWgt=   1.0078250   1.0078250   1.0078250   1.0078250   1.0078250   1.0078250   1.0078250   1.0078250   1.0078250   1.0078250
 NucSpn=           1           1           1           1           1           1           1           1           1           1
 AtZEff=   0.0000000   0.0000000   0.0000000   0.0000000   0.0000000   0.0000000   0.0000000   0.0000000   0.0000000   0.0000000
 NQMom=    0.0000000   0.0000000   0.0000000   0.0000000   0.0000000   0.0000000   0.0000000   0.0000000   0.0000000   0.0000000
 NMagM=    2.7928460   2.7928460   2.7928460   2.7928460   2.7928460   2.7928460   2.7928460   2.7928460   2.7928460   2.7928460
 AtZNuc=   1.0000000   1.0000000   1.0000000   1.0000000   1.0000000   1.0000000   1.0000000   1.0000000   1.0000000   1.0000000

  Atom       141         142         143
 IAtWgt=          14          14          14
 AtmWgt=  14.0030740  14.0030740  14.0030740
 NucSpn=           2           2           2
 AtZEff=   0.0000000   0.0000000   0.0000000
 NQMom=    2.0440000   2.0440000   2.0440000
 NMagM=    0.4037610   0.4037610   0.4037610
 AtZNuc=   7.0000000   7.0000000   7.0000000
 Leave Link  101 at Mon Jan 30 17:45:16 2017, MaxMem=  2147483648 cpu:         3.8
 (Enter /share/apps/gaussian/g09d01/nehalem/g09/l202.exe)
 Symmetry turned off by external request.
 Stoichiometry    C120H20N3
                          Input orientation:                          
 ---------------------------------------------------------------------
 Center     Atomic      Atomic             Coordinates (Angstroms)
 Number     Number       Type             X           Y           Z
 ---------------------------------------------------------------------
      1          1           0        3.785186    0.057583    7.687268
      2          1           0       -1.197253   -3.564558    7.686949
      3          1           0        1.129869    3.599860    7.686794
      4          1           0       -1.087967    3.599774    7.686847
      5          1           0       -2.990098   -2.259135    7.687238
      6          1           0        1.239136   -3.564286    7.687094
      7          1           0        3.032346   -2.259479    7.687369
      8          1           0       -3.058849    2.167112    7.686968
      9          1           0        3.100089    2.166491    7.687145
     10          1           0       -3.743505    0.057919    7.687052
     11          6           0        3.097864   -1.718048    6.748757
     12          6           0        3.519898   -0.419039    6.748718
     13          6           0        2.605050    2.395826    6.748658
     14          6           0        1.500674    3.199169    6.748525
     15          6           0       -1.458757    3.198957    6.748626
     16          6           0       -2.563244    2.396065    6.748701
     17          6           0       -3.477327   -0.418676    6.748754
     18          6           0       -3.055118   -1.717338    6.748814
     19          6           0       -0.661897   -3.458755    6.748534
     20          6           0        0.703910   -3.458679    6.748573
     21          6           0        0.734356    3.379905    5.541748
     22          6           0       -0.692351    3.380053    5.541676
     23          6           0       -2.972023    1.722885    5.541769
     24          6           0       -3.412592    0.365989    5.541847
     25          6           0       -2.541987   -2.314742    5.542022
     26          6           0       -1.388039   -3.153999    5.542059
     27          6           0        1.430478   -3.154463    5.542227
     28          6           0        2.584739   -2.315275    5.542335
     29          6           0        3.455198    0.365608    5.542256
     30          6           0        3.014248    1.722751    5.542104
     31          6           0        2.985019   -1.718537    4.313823
     32          6           0        3.428066   -0.352511    4.313724
     33          6           0        2.571558    2.288546    4.313697
     34          6           0        1.409158    3.131940    4.313424
     35          6           0       -1.367609    3.133640    4.313511
     36          6           0       -2.529205    2.289027    4.313519
     37          6           0       -3.386077   -0.352389    4.313550
     38          6           0       -2.943399   -1.718665    4.313752
     39          6           0       -0.696579   -3.350039    4.313559
     40          6           0        0.739522   -3.351145    4.313718
     41          6           0        0.727515    3.334991    3.080127
     42          6           0       -0.686511    3.337841    3.080010
     43          6           0       -2.933253    1.703844    3.080093
     44          6           0       -3.368585    0.358538    3.080183
     45          6           0       -2.513787   -2.285355    3.080181
     46          6           0       -1.367777   -3.114208    3.080290
     47          6           0        1.411619   -3.117870    3.080266
     48          6           0        2.555567   -2.285629    3.080337
     49          6           0        3.412374    0.358655    3.080320
     50          6           0        2.978001    1.704817    3.080173
     51          6           0        2.978495   -1.703188    1.842760
     52          6           0        3.411153   -0.361408    1.842595
     53          6           0        2.557161    2.288693    1.842488
     54          6           0        1.412374    3.111545    1.842050
     55          6           0       -1.372256    3.118051    1.841979
     56          6           0       -2.511689    2.287827    1.841910
     57          6           0       -3.368626   -0.361839    1.841985
     58          6           0       -2.939176   -1.704653    1.842356
     59          6           0       -0.682320   -3.335237    1.842410
     60          6           0        0.727430   -3.341083    1.842715
     61          6           0        0.732725    3.347080    0.610080
     62          6           0       -0.692370    3.351075    0.610187
     63          6           0        1.414669   -3.130911    0.610395
     64          6           0        2.566601   -2.292421    0.610373
     65          6           0        3.424761    0.357589    0.610253
     66          6           0        2.988610    1.714092    0.610378
     67          6           0       -2.943872    1.713301    0.610127
     68          6           0       -3.382141    0.357169    0.610075
     69          6           0       -2.526147   -2.292651    0.610346
     70          6           0       -1.370616   -3.126521    0.610180
     71          6           0        2.986296   -1.713524   -0.614637
     72          6           0        3.424479   -0.357300   -0.614516
     73          6           0        2.568486    2.292928   -0.614799
     74          6           0        1.412765    3.126615   -0.614512
     75          6           0       -1.372850    3.131267   -0.614797
     76          6           0       -2.524714    2.292622   -0.614747
     77          6           0       -3.383067   -0.357786   -0.614570
     78          6           0       -2.947098   -1.714411   -0.614800
     79          6           0       -0.690719   -3.347384   -0.614467
     80          6           0        0.734443   -3.351552   -0.614690
     81          6           0        0.724378    3.335890   -1.846620
     82          6           0       -0.685355    3.341404   -1.846926
     83          6           0       -2.936625    1.703099   -1.846980
     84          6           0       -3.369484    0.361473   -1.846810
     85          6           0       -2.515381   -2.289011   -1.846649
     86          6           0       -1.370748   -3.112275   -1.846232
     87          6           0        1.414409   -3.118490   -1.846155
     88          6           0        2.554171   -2.288215   -1.846093
     89          6           0        3.411515    0.361918   -1.846143
     90          6           0        2.981490    1.704778   -1.846505
     91          6           0        2.975434   -1.703940   -3.084486
     92          6           0        3.411106   -0.358449   -3.084561
     93          6           0        2.555814    2.285436   -3.084627
     94          6           0        1.409868    3.114807   -3.084773
     95          6           0       -1.369601    3.118009   -3.084877
     96          6           0       -2.513714    2.285677   -3.084951
     97          6           0       -3.370797   -0.358621   -3.084880
     98          6           0       -2.936078   -1.704886   -3.084703
     99          6           0       -0.685840   -3.335593   -3.084549
    100          6           0        0.728471   -3.337995   -3.084430
    101          6           0        1.409602   -3.133802   -4.318042
    102          6           0        2.571309   -2.289106   -4.318046
    103          6           0        3.428471    0.352514   -4.318074
    104          6           0        2.985613    1.718862   -4.318268
    105          6           0        0.738662    3.350631   -4.318126
    106          6           0       -0.697562    3.351564   -4.318315
    107          6           0       -2.943355    1.718686   -4.318419
    108          6           0       -3.386551    0.352568   -4.318315
    109          6           0       -2.529866   -2.288812   -4.318251
    110          6           0       -1.367475   -3.132441   -4.317974
    111          6           0        3.014089   -1.722814   -5.546321
    112          6           0        3.454752   -0.365945   -5.546393
    113          6           0        2.583956    2.314963   -5.546612
    114          6           0        1.430145    3.154244   -5.546674
    115          6           0       -1.388567    3.154423   -5.546937
    116          6           0       -2.542671    2.315340   -5.547044
    117          6           0       -3.413349   -0.365691   -5.546917
    118          6           0       -2.972413   -1.722688   -5.546752
    119          6           0       -0.692495   -3.380157   -5.546325
    120          6           0        0.734193   -3.380146   -5.546246
    121          6           0        0.703866    3.458942   -6.753182
    122          6           0       -0.661896    3.458833   -6.753301
    123          6           0       -3.055983    1.718044   -6.753494
    124          6           0       -3.478020    0.419095   -6.753418
    125          6           0       -2.563261   -2.395950   -6.753301
    126          6           0       -1.458882   -3.199253   -6.753096
    127          6           0        1.500703   -3.198971   -6.753145
    128          6           0        2.605180   -2.396040   -6.753202
    129          6           0        3.519367    0.418840   -6.753266
    130          6           0        3.097244    1.717525   -6.753378
    131          1           0        1.239275    3.565015   -7.691537
    132          1           0       -1.197125    3.564677   -7.691786
    133          1           0       -2.990764    2.259602   -7.692047
    134          1           0       -3.743650   -0.057475   -7.691897
    135          1           0       -3.058388   -2.166748   -7.691768
    136          1           0       -1.088158   -3.600085   -7.691339
    137          1           0        1.130016   -3.599878   -7.691367
    138          1           0        3.100833   -2.167184   -7.691470
    139          1           0        3.785654   -0.057718   -7.691556
    140          1           0        3.032383    2.259358   -7.691788
    141          7           0        0.020615   -0.005052   -1.079111
    142          7           0        0.020707   -0.000237    0.104832
    143          7           0        0.020330    0.004500    1.288827
 ---------------------------------------------------------------------
 Rotational constants (GHZ):      0.0291266      0.0140862      0.0140843
 Leave Link  202 at Mon Jan 30 17:45:16 2017, MaxMem=  2147483648 cpu:         0.2
 (Enter /share/apps/gaussian/g09d01/nehalem/g09/l122.exe)
 Counterpoise: doing full dimer calculation.
 Leave Link  122 at Mon Jan 30 17:45:16 2017, MaxMem=  2147483648 cpu:         0.0
 (Enter /share/apps/gaussian/g09d01/nehalem/g09/l301.exe)
 General basis read from cards:  (5D, 7F)
 Centers:     141    142    143
 6-31+G*
 ****
 Centers:      11     12     13     14     15     16     17     18     19     20
 Centers:      21     22     23     24     25     26     27     28     29     30
 Centers:      31     32     33     34     35     36     37     38     39     40
 Centers:      41     42     43     44     45     46     47     48     49     50
 Centers:      51     52     53     54     55     56     57     58     59     60
 Centers:      61     62     63     64     65     66     67     68     69     70
 Centers:      71     72     73     74     75     76     77     78     79     80
 Centers:      81     82     83     84     85     86     87     88     89     90
 Centers:      91     92     93     94     95     96     97     98     99    100
 Centers:     101    102    103    104    105    106    107    108    109    110
 Centers:     111    112    113    114    115    116    117    118    119    120
 Centers:     121    122    123    124    125    126    127    128    129    130
 Centers:       1      2      3      4      5      6      7      8      9     10
 Centers:     131    132    133    134    135    136    137    138    139    140
 6-31G
 ****
 Ernie: Thresh=  0.10000D-02 Tol=  0.10000D-05 Strict=F.
  1174 basis functions,  2816 primitive gaussians,  1177 cartesian basis functions
   381 alpha electrons      381 beta electrons
       nuclear repulsion energy     26567.0255637920 Hartrees.
 IExCor=    0 DFT=F Ex=HF Corr=None ExCW=0 ScaHFX=  1.000000
 ScaDFX=  1.000000  1.000000  1.000000  1.000000 ScalE2=  1.000000  1.000000
 IRadAn=      5 IRanWt=     -1 IRanGd=            0 ICorTp=0 IEmpDi=  4
 NAtoms=  143 NActive=  143 NUniq=  143 SFac= 1.00D+00 NAtFMM=   60 NAOKFM=T Big=T
 Integral buffers will be    131072 words long.
 Raffenetti 1 integral format.
 Two-electron integral symmetry is turned off.
 Leave Link  301 at Mon Jan 30 17:45:17 2017, MaxMem=  2147483648 cpu:         0.9
 (Enter /share/apps/gaussian/g09d01/nehalem/g09/l302.exe)
 NPDir=0 NMtPBC=     1 NCelOv=     1 NCel=       1 NClECP=     1 NCelD=      1
         NCelK=      1 NCelE2=     1 NClLst=     1 CellRange=     0.0.
 One-electron integrals computed using PRISM.
 NBasis=  1174 RedAO= T EigKep=  3.62D-06  NBF=  1174
 NBsUse=  1174 1.00D-06 EigRej= -1.00D+00 NBFU=  1174
 Leave Link  302 at Mon Jan 30 17:45:22 2017, MaxMem=  2147483648 cpu:        67.9
 (Enter /share/apps/gaussian/g09d01/nehalem/g09/l303.exe)
 DipDrv:  MaxL=1.
 Leave Link  303 at Mon Jan 30 17:45:23 2017, MaxMem=  2147483648 cpu:         5.2
 (Enter /share/apps/gaussian/g09d01/nehalem/g09/l401.exe)
 ExpMin= 6.39D-02 ExpMax= 4.17D+03 ExpMxC= 6.27D+02 IAcc=3 IRadAn=         5 AccDes= 0.00D+00
 Harris functional with IExCor=  205 and IRadAn=       5 diagonalized for initial guess.
 HarFok:  IExCor=  205 AccDes= 0.00D+00 IRadAn=         5 IDoV= 1 UseB2=F ITyADJ=14
 ICtDFT=  3500011 ScaDFX=  1.000000  1.000000  1.000000  1.000000
 FoFCou: FMM=F IPFlag=           0 FMFlag=      100000 FMFlg1=        2001
         NFxFlg=           0 DoJE=T BraDBF=F KetDBF=T FulRan=T
         wScrn=  0.000000 ICntrl=     500 IOpCl=  0 I1Cent=   200000004 NGrid=           0
         NMat0=    1 NMatS0=      1 NMatT0=    0 NMatD0=    1 NMtDS0=    0 NMtDT0=    0
 Symmetry not used in FoFCou.
 Harris En= -4722.68502016734    
 JPrj=0 DoOrth=F DoCkMO=F.
 Leave Link  401 at Mon Jan 30 17:45:52 2017, MaxMem=  2147483648 cpu:       354.8
 (Enter /share/apps/gaussian/g09d01/nehalem/g09/l502.exe)
 Closed shell SCF:
 Using DIIS extrapolation, IDIIS=  1040.
 Two-electron integral symmetry not used.
 IVT=     4196009 IEndB=     4196009 NGot=  2147483648 MDV=  2144690786
 LenX=  2144690786 LenY=  2143304280
 Requested convergence on RMS density matrix=1.00D-08 within 128 cycles.
 Requested convergence on MAX density matrix=1.00D-06.
 Requested convergence on             energy=1.00D-06.
 No special actions if energy rises.
 Fock matrices will be formed incrementally for  20 cycles.
 Integral accuracy reduced to 1.0D-05 until final iterations.

 Cycle   1  Pass 0  IDiag  1:
 FoFJK:  IHMeth= 1 ICntrl=       0 DoSepK=F KAlg= 0 I1Cent=   0 FoldK=F
 IRaf= 690000000 NMat=   1 IRICut=       1 DoRegI=T DoRafI=F ISym2E= 0.
 FoFCou: FMM=T IPFlag=           0 FMFlag=      100000 FMFlg1=        2001
         NFxFlg=           0 DoJE=F BraDBF=F KetDBF=F FulRan=T
         wScrn=  0.000000 ICntrl=       0 IOpCl=  0 I1Cent=           0 NGrid=           0
         NMat0=    1 NMatS0=      1 NMatT0=    0 NMatD0=    1 NMtDS0=    0 NMtDT0=    0
 Symmetry not used in FoFCou.
 FMM levels:  10  Number of levels for PrismC:   9
 E= -4715.16645588184    
 DIIS: error= 4.89D-02 at cycle   1 NSaved=   1.
 NSaved= 1 IEnMin= 1 EnMin= -4715.16645588184     IErMin= 1 ErrMin= 4.89D-02
 ErrMax= 4.89D-02  0.00D+00 EMaxC= 1.00D-01 BMatC= 3.14D+00 BMatP= 3.14D+00
 IDIUse=3 WtCom= 5.11D-01 WtEn= 4.89D-01
 Coeff-Com:  0.100D+01
 Coeff-En:   0.100D+01
 Coeff:      0.100D+01
 Gap=     0.106 Goal=   None    Shift=    0.000
 GapD=    0.106 DampG=1.000 DampE=0.500 DampFc=0.5000 IDamp=-1.
 Damping current iteration by 5.00D-01
 RMSDP=3.37D-02 MaxDP=1.59D+01              OVMax= 1.21D-01

 Cycle   2  Pass 0  IDiag  1:
 RMSU=  1.31D-02    CP:  1.52D+00
 E= -4716.45619642047     Delta-E=       -1.289740538625 Rises=F Damp=T
 DIIS: error= 2.52D-02 at cycle   2 NSaved=   2.
 NSaved= 2 IEnMin= 2 EnMin= -4716.45619642047     IErMin= 2 ErrMin= 2.52D-02
 ErrMax= 2.52D-02  0.00D+00 EMaxC= 1.00D-01 BMatC= 7.44D-01 BMatP= 3.14D+00
 IDIUse=3 WtCom= 7.48D-01 WtEn= 2.52D-01
 Coeff-Com: -0.826D+00 0.183D+01
 Coeff-En:   0.000D+00 0.100D+01
 Coeff:     -0.618D+00 0.162D+01
 Gap=     0.108 Goal=   None    Shift=    0.000
 RMSDP=1.13D+01 MaxDP=1.55D+02 DE=-1.29D+00 OVMax= 9.50D-01

 Problem detected with inexpensive integrals.
 Switching to full accuracy and repeating last cycle.
 Cycle   3  Pass 1  IDiag  1:
 E= -4716.45375643784     Delta-E=        0.002439982625 Rises=F Damp=F
 DIIS: error= 2.52D-02 at cycle   1 NSaved=   1.
 NSaved= 1 IEnMin= 1 EnMin= -4716.45375643784     IErMin= 1 ErrMin= 2.52D-02
 ErrMax= 2.52D-02  0.00D+00 EMaxC= 1.00D-01 BMatC= 7.43D-01 BMatP= 7.43D-01
 IDIUse=3 WtCom= 7.48D-01 WtEn= 2.52D-01
 Coeff-Com:  0.100D+01
 Coeff-En:   0.100D+01
 Coeff:      0.100D+01
 Gap=     0.108 Goal=   None    Shift=    0.000
 GapD=    0.108 DampG=1.000 DampE=0.500 DampFc=0.5000 IDamp=-1.
 Damping current iteration by 5.00D-01
 RMSDP=1.55D-02 MaxDP=6.95D+00 DE= 2.44D-03 OVMax= 2.72D-02

 Cycle   4  Pass 1  IDiag  1:
 RMSU=  3.34D-03    CP:  7.91D-01
 E= -4717.06437349440     Delta-E=       -0.610617056554 Rises=F Damp=T
 DIIS: error= 1.38D-02 at cycle   2 NSaved=   2.
 NSaved= 2 IEnMin= 2 EnMin= -4717.06437349440     IErMin= 2 ErrMin= 1.38D-02
 ErrMax= 1.38D-02  0.00D+00 EMaxC= 1.00D-01 BMatC= 1.98D-01 BMatP= 7.43D-01
 IDIUse=3 WtCom= 8.62D-01 WtEn= 1.38D-01
 Coeff-Com: -0.993D+00 0.199D+01
 Coeff-En:   0.000D+00 0.100D+01
 Coeff:     -0.856D+00 0.186D+01
 Gap=     0.113 Goal=   None    Shift=    0.000
 GapD=    0.113 DampG=1.000 DampE=0.500 DampFc=0.5000 IDamp=-1.
 Damping current iteration by 5.00D-01
 RMSDP=8.27D-03 MaxDP=3.80D+00 DE=-6.11D-01 OVMax= 1.65D-02

 Cycle   5  Pass 1  IDiag  1:
 RMSU=  3.93D-04    CP:  6.81D-01  1.53D+00
 E= -4717.37006729958     Delta-E=       -0.305693805189 Rises=F Damp=T
 DIIS: error= 7.07D-03 at cycle   3 NSaved=   3.
 NSaved= 3 IEnMin= 3 EnMin= -4717.37006729958     IErMin= 3 ErrMin= 7.07D-03
 ErrMax= 7.07D-03  0.00D+00 EMaxC= 1.00D-01 BMatC= 5.31D-02 BMatP= 1.98D-01
 IDIUse=3 WtCom= 9.29D-01 WtEn= 7.07D-02
 Coeff-Com: -0.135D+00-0.668D+00 0.180D+01
 Coeff-En:   0.000D+00 0.000D+00 0.100D+01
 Coeff:     -0.126D+00-0.620D+00 0.175D+01
 Gap=     0.117 Goal=   None    Shift=    0.000
 RMSDP=4.32D-03 MaxDP=1.91D+00 DE=-3.06D-01 OVMax= 1.10D-02

 Cycle   6  Pass 1  IDiag  1:
 RMSU=  2.39D-04    CP:  5.65D-01  2.10D+00  1.40D+00
 E= -4717.68356969093     Delta-E=       -0.313502391342 Rises=F Damp=F
 DIIS: error= 7.02D-04 at cycle   4 NSaved=   4.
 NSaved= 4 IEnMin= 4 EnMin= -4717.68356969093     IErMin= 4 ErrMin= 7.02D-04
 ErrMax= 7.02D-04  0.00D+00 EMaxC= 1.00D-01 BMatC= 1.74D-04 BMatP= 5.31D-02
 IDIUse=3 WtCom= 9.93D-01 WtEn= 7.02D-03
 Coeff-Com:  0.420D-01-0.179D+00 0.184D+00 0.953D+00
 Coeff-En:   0.000D+00 0.000D+00 0.000D+00 0.100D+01
 Coeff:      0.417D-01-0.178D+00 0.183D+00 0.954D+00
 Gap=     0.120 Goal=   None    Shift=    0.000
 RMSDP=1.06D-04 MaxDP=3.19D-02 DE=-3.14D-01 OVMax= 7.74D-03

 Cycle   7  Pass 1  IDiag  1:
 RMSU=  6.66D-05    CP:  5.67D-01  2.10D+00  1.54D+00  1.03D+00
 E= -4717.68416829594     Delta-E=       -0.000598605009 Rises=F Damp=F
 DIIS: error= 5.95D-04 at cycle   5 NSaved=   5.
 NSaved= 5 IEnMin= 5 EnMin= -4717.68416829594     IErMin= 5 ErrMin= 5.95D-04
 ErrMax= 5.95D-04  0.00D+00 EMaxC= 1.00D-01 BMatC= 5.06D-05 BMatP= 1.74D-04
 IDIUse=3 WtCom= 9.94D-01 WtEn= 5.95D-03
 Coeff-Com:  0.268D-01 0.390D-01-0.178D+00 0.243D+00 0.869D+00
 Coeff-En:   0.000D+00 0.000D+00 0.000D+00 0.000D+00 0.100D+01
 Coeff:      0.266D-01 0.388D-01-0.177D+00 0.242D+00 0.870D+00
 Gap=     0.121 Goal=   None    Shift=    0.000
 RMSDP=6.64D-05 MaxDP=2.16D-02 DE=-5.99D-04 OVMax= 5.20D-03

 Cycle   8  Pass 1  IDiag  1:
 RMSU=  4.60D-05    CP:  5.66D-01  2.10D+00  1.59D+00  1.08D+00  1.34D+00
 E= -4717.68435874024     Delta-E=       -0.000190444309 Rises=F Damp=F
 DIIS: error= 2.83D-04 at cycle   6 NSaved=   6.
 NSaved= 6 IEnMin= 6 EnMin= -4717.68435874024     IErMin= 6 ErrMin= 2.83D-04
 ErrMax= 2.83D-04  0.00D+00 EMaxC= 1.00D-01 BMatC= 1.76D-05 BMatP= 5.06D-05
 IDIUse=3 WtCom= 9.97D-01 WtEn= 2.83D-03
 Coeff-Com: -0.444D-03 0.683D-01-0.130D+00-0.171D+00 0.364D+00 0.870D+00
 Coeff-En:   0.000D+00 0.000D+00 0.000D+00 0.000D+00 0.000D+00 0.100D+01
 Coeff:     -0.443D-03 0.681D-01-0.130D+00-0.171D+00 0.363D+00 0.870D+00
 Gap=     0.123 Goal=   None    Shift=    0.000
 RMSDP=3.47D-05 MaxDP=1.22D-02 DE=-1.90D-04 OVMax= 3.42D-03

 Cycle   9  Pass 1  IDiag  1:
 RMSU=  1.50D-05    CP:  5.66D-01  2.10D+00  1.55D+00  1.16D+00  1.64D+00
                    CP:  1.12D+00
 E= -4717.68443808984     Delta-E=       -0.000079349600 Rises=F Damp=F
 DIIS: error= 1.35D-04 at cycle   7 NSaved=   7.
 NSaved= 7 IEnMin= 7 EnMin= -4717.68443808984     IErMin= 7 ErrMin= 1.35D-04
 ErrMax= 1.35D-04  0.00D+00 EMaxC= 1.00D-01 BMatC= 4.15D-06 BMatP= 1.76D-05
 IDIUse=3 WtCom= 9.99D-01 WtEn= 1.35D-03
 Coeff-Com: -0.680D-02 0.149D-01-0.263D-02-0.123D+00-0.532D-01 0.319D+00
 Coeff-Com:  0.852D+00
 Coeff-En:   0.000D+00 0.000D+00 0.000D+00 0.000D+00 0.000D+00 0.000D+00
 Coeff-En:   0.100D+01
 Coeff:     -0.679D-02 0.149D-01-0.262D-02-0.123D+00-0.531D-01 0.318D+00
 Coeff:      0.852D+00
 Gap=     0.123 Goal=   None    Shift=    0.000
 RMSDP=1.92D-05 MaxDP=5.47D-03 DE=-7.93D-05 OVMax= 1.64D-03

 Cycle  10  Pass 1  IDiag  1:
 RMSU=  6.83D-06    CP:  5.66D-01  2.10D+00  1.55D+00  1.19D+00  1.78D+00
                    CP:  1.41D+00  1.02D+00
 E= -4717.68445550476     Delta-E=       -0.000017414917 Rises=F Damp=F
 DIIS: error= 8.97D-05 at cycle   8 NSaved=   8.
 NSaved= 8 IEnMin= 8 EnMin= -4717.68445550476     IErMin= 8 ErrMin= 8.97D-05
 ErrMax= 8.97D-05  0.00D+00 EMaxC= 1.00D-01 BMatC= 1.30D-06 BMatP= 4.15D-06
 IDIUse=1 WtCom= 1.00D+00 WtEn= 0.00D+00
 Coeff-Com: -0.356D-02-0.155D-01 0.436D-01-0.924D-02-0.141D+00-0.148D+00
 Coeff-Com:  0.422D+00 0.852D+00
 Coeff:     -0.356D-02-0.155D-01 0.436D-01-0.924D-02-0.141D+00-0.148D+00
 Coeff:      0.422D+00 0.852D+00
 Gap=     0.124 Goal=   None    Shift=    0.000
 RMSDP=1.11D-05 MaxDP=2.00D-03 DE=-1.74D-05 OVMax= 1.07D-03

 Cycle  11  Pass 1  IDiag  1:
 RMSU=  2.72D-06    CP:  5.66D-01  2.10D+00  1.56D+00  1.19D+00  1.87D+00
                    CP:  1.55D+00  1.33D+00  7.46D-01
 E= -4717.68445983027     Delta-E=       -0.000004325510 Rises=F Damp=F
 DIIS: error= 2.42D-05 at cycle   9 NSaved=   9.
 NSaved= 9 IEnMin= 9 EnMin= -4717.68445983027     IErMin= 9 ErrMin= 2.42D-05
 ErrMax= 2.42D-05  0.00D+00 EMaxC= 1.00D-01 BMatC= 1.76D-07 BMatP= 1.30D-06
 IDIUse=1 WtCom= 1.00D+00 WtEn= 0.00D+00
 Coeff-Com: -0.841D-03-0.872D-02 0.201D-01 0.884D-02-0.560D-01-0.108D+00
 Coeff-Com:  0.951D-01 0.401D+00 0.648D+00
 Coeff:     -0.841D-03-0.872D-02 0.201D-01 0.884D-02-0.560D-01-0.108D+00
 Coeff:      0.951D-01 0.401D+00 0.648D+00
 Gap=     0.124 Goal=   None    Shift=    0.000
 RMSDP=2.60D-06 MaxDP=1.08D-03 DE=-4.33D-06 OVMax= 2.63D-04

 Cycle  12  Pass 1  IDiag  1:
 RMSU=  8.81D-07    CP:  5.66D-01  2.10D+00  1.56D+00  1.20D+00  1.89D+00
                    CP:  1.57D+00  1.35D+00  9.24D-01  9.22D-01
 E= -4717.68446018541     Delta-E=       -0.000000355136 Rises=F Damp=F
 DIIS: error= 1.11D-05 at cycle  10 NSaved=  10.
 NSaved=10 IEnMin=10 EnMin= -4717.68446018541     IErMin=10 ErrMin= 1.11D-05
 ErrMax= 1.11D-05  0.00D+00 EMaxC= 1.00D-01 BMatC= 1.28D-08 BMatP= 1.76D-07
 IDIUse=1 WtCom= 1.00D+00 WtEn= 0.00D+00
 Coeff-Com:  0.640D-03 0.279D-02-0.785D-02 0.121D-02 0.291D-01 0.251D-01
 Coeff-Com: -0.853D-01-0.148D+00 0.332D-01 0.115D+01
 Coeff:      0.640D-03 0.279D-02-0.785D-02 0.121D-02 0.291D-01 0.251D-01
 Coeff:     -0.853D-01-0.148D+00 0.332D-01 0.115D+01
 Gap=     0.124 Goal=   None    Shift=    0.000
 RMSDP=1.69D-06 MaxDP=5.27D-04 DE=-3.55D-07 OVMax= 1.15D-04

 Cycle  13  Pass 1  IDiag  1:
 RMSU=  5.04D-07    CP:  5.66D-01  2.10D+00  1.56D+00  1.20D+00  1.90D+00
                    CP:  1.59D+00  1.37D+00  9.22D-01  1.10D+00  1.38D+00
 E= -4717.68446024262     Delta-E=       -0.000000057211 Rises=F Damp=F
 DIIS: error= 2.50D-06 at cycle  11 NSaved=  11.
 NSaved=11 IEnMin=11 EnMin= -4717.68446024262     IErMin=11 ErrMin= 2.50D-06
 ErrMax= 2.50D-06  0.00D+00 EMaxC= 1.00D-01 BMatC= 1.43D-09 BMatP= 1.28D-08
 IDIUse=1 WtCom= 1.00D+00 WtEn= 0.00D+00
 Coeff-Com:  0.937D-04 0.976D-03-0.225D-02-0.132D-02 0.725D-02 0.107D-01
 Coeff-Com: -0.935D-02-0.414D-01-0.895D-01-0.401D-02 0.113D+01
 Coeff:      0.937D-04 0.976D-03-0.225D-02-0.132D-02 0.725D-02 0.107D-01
 Coeff:     -0.935D-02-0.414D-01-0.895D-01-0.401D-02 0.113D+01
 Gap=     0.124 Goal=   None    Shift=    0.000
 RMSDP=6.07D-07 MaxDP=1.54D-04 DE=-5.72D-08 OVMax= 3.54D-05

 Cycle  14  Pass 1  IDiag  1:
 RMSU=  1.45D-07    CP:  5.66D-01  2.10D+00  1.56D+00  1.20D+00  1.90D+00
                    CP:  1.60D+00  1.38D+00  9.24D-01  1.16D+00  1.55D+00
                    CP:  1.42D+00
 E= -4717.68446024970     Delta-E=       -0.000000007083 Rises=F Damp=F
 DIIS: error= 7.86D-07 at cycle  12 NSaved=  12.
 NSaved=12 IEnMin=12 EnMin= -4717.68446024970     IErMin=12 ErrMin= 7.86D-07
 ErrMax= 7.86D-07  0.00D+00 EMaxC= 1.00D-01 BMatC= 2.81D-10 BMatP= 1.43D-09
 IDIUse=1 WtCom= 1.00D+00 WtEn= 0.00D+00
 Coeff-Com: -0.558D-04-0.649D-04 0.339D-03-0.619D-03-0.154D-02-0.825D-04
 Coeff-Com:  0.863D-02 0.643D-02-0.369D-01-0.152D+00 0.359D+00 0.817D+00
 Coeff:     -0.558D-04-0.649D-04 0.339D-03-0.619D-03-0.154D-02-0.825D-04
 Coeff:      0.863D-02 0.643D-02-0.369D-01-0.152D+00 0.359D+00 0.817D+00
 Gap=     0.124 Goal=   None    Shift=    0.000
 RMSDP=1.56D-07 MaxDP=2.22D-05 DE=-7.08D-09 OVMax= 1.17D-05

 Cycle  15  Pass 1  IDiag  1:
 RMSU=  5.78D-08    CP:  5.66D-01  2.10D+00  1.56D+00  1.20D+00  1.90D+00
                    CP:  1.60D+00  1.38D+00  9.25D-01  1.17D+00  1.61D+00
                    CP:  1.58D+00  9.58D-01
 E= -4717.68446024883     Delta-E=        0.000000000869 Rises=F Damp=F
 DIIS: error= 5.41D-07 at cycle  13 NSaved=  13.
 NSaved=13 IEnMin=12 EnMin= -4717.68446024970     IErMin=13 ErrMin= 5.41D-07
 ErrMax= 5.41D-07  0.00D+00 EMaxC= 1.00D-01 BMatC= 3.85D-11 BMatP= 2.81D-10
 IDIUse=1 WtCom= 1.00D+00 WtEn= 0.00D+00
 Coeff-Com: -0.207D-04-0.186D-03 0.441D-03 0.216D-03-0.159D-02-0.183D-02
 Coeff-Com:  0.274D-02 0.759D-02 0.122D-01-0.118D-01-0.160D+00 0.622D-01
 Coeff-Com:  0.109D+01
 Coeff:     -0.207D-04-0.186D-03 0.441D-03 0.216D-03-0.159D-02-0.183D-02
 Coeff:      0.274D-02 0.759D-02 0.122D-01-0.118D-01-0.160D+00 0.622D-01
 Coeff:      0.109D+01
 Gap=     0.124 Goal=   None    Shift=    0.000
 RMSDP=1.01D-07 MaxDP=4.21D-05 DE= 8.69D-10 OVMax= 7.12D-06

 Cycle  16  Pass 1  IDiag  1:
 RMSU=  2.39D-08    CP:  5.66D-01  2.10D+00  1.56D+00  1.20D+00  1.90D+00
                    CP:  1.60D+00  1.38D+00  9.24D-01  1.17D+00  1.62D+00
                    CP:  1.64D+00  1.20D+00  1.34D+00
 E= -4717.68446025010     Delta-E=       -0.000000001273 Rises=F Damp=F
 DIIS: error= 3.28D-07 at cycle  14 NSaved=  14.
 NSaved=14 IEnMin=14 EnMin= -4717.68446025010     IErMin=14 ErrMin= 3.28D-07
 ErrMax= 3.28D-07  0.00D+00 EMaxC= 1.00D-01 BMatC= 8.97D-12 BMatP= 3.85D-11
 IDIUse=1 WtCom= 1.00D+00 WtEn= 0.00D+00
 Coeff-Com:  0.521D-05-0.213D-04 0.215D-04 0.150D-03-0.814D-04-0.219D-03
 Coeff-Com: -0.890D-03 0.684D-04 0.845D-02 0.230D-01-0.896D-01-0.118D+00
 Coeff-Com:  0.208D+00 0.970D+00
 Coeff:      0.521D-05-0.213D-04 0.215D-04 0.150D-03-0.814D-04-0.219D-03
 Coeff:     -0.890D-03 0.684D-04 0.845D-02 0.230D-01-0.896D-01-0.118D+00
 Coeff:      0.208D+00 0.970D+00
 Gap=     0.124 Goal=   None    Shift=    0.000
 RMSDP=4.13D-08 MaxDP=1.65D-05 DE=-1.27D-09 OVMax= 5.06D-06

 Cycle  17  Pass 1  IDiag  1:
 RMSU=  1.06D-08    CP:  5.66D-01  2.10D+00  1.56D+00  1.20D+00  1.90D+00
                    CP:  1.60D+00  1.38D+00  9.23D-01  1.18D+00  1.62D+00
                    CP:  1.66D+00  1.26D+00  1.57D+00  1.61D+00
 E= -4717.68446025012     Delta-E=       -0.000000000018 Rises=F Damp=F
 DIIS: error= 2.24D-07 at cycle  15 NSaved=  15.
 NSaved=15 IEnMin=15 EnMin= -4717.68446025012     IErMin=15 ErrMin= 2.24D-07
 ErrMax= 2.24D-07  0.00D+00 EMaxC= 1.00D-01 BMatC= 2.71D-12 BMatP= 8.97D-12
 IDIUse=1 WtCom= 1.00D+00 WtEn= 0.00D+00
 Coeff-Com:  0.344D-05 0.488D-04-0.108D-03-0.946D-04 0.378D-03 0.491D-03
 Coeff-Com: -0.298D-03-0.180D-02-0.586D-02-0.504D-02 0.728D-01 0.209D-01
 Coeff-Com: -0.393D+00-0.230D+00 0.154D+01
 Coeff:      0.344D-05 0.488D-04-0.108D-03-0.946D-04 0.378D-03 0.491D-03
 Coeff:     -0.298D-03-0.180D-02-0.586D-02-0.504D-02 0.728D-01 0.209D-01
 Coeff:     -0.393D+00-0.230D+00 0.154D+01
 Gap=     0.124 Goal=   None    Shift=    0.000
 RMSDP=3.37D-08 MaxDP=1.12D-05 DE=-1.82D-11 OVMax= 6.16D-06

 Cycle  18  Pass 1  IDiag  1:
 RMSU=  8.02D-09    CP:  5.66D-01  2.10D+00  1.56D+00  1.20D+00  1.90D+00
                    CP:  1.60D+00  1.38D+00  9.23D-01  1.18D+00  1.62D+00
                    CP:  1.67D+00  1.31D+00  1.75D+00  2.41D+00  2.01D+00
 E= -4717.68446024910     Delta-E=        0.000000001022 Rises=F Damp=F
 DIIS: error= 1.06D-07 at cycle  16 NSaved=  16.
 NSaved=16 IEnMin=15 EnMin= -4717.68446025012     IErMin=16 ErrMin= 1.06D-07
 ErrMax= 1.06D-07  0.00D+00 EMaxC= 1.00D-01 BMatC= 7.62D-13 BMatP= 2.71D-12
 IDIUse=1 WtCom= 1.00D+00 WtEn= 0.00D+00
 Coeff-Com: -0.102D-05 0.243D-05-0.819D-06-0.282D-04 0.138D-04 0.275D-04
 Coeff-Com:  0.156D-03 0.659D-04-0.137D-02-0.460D-02 0.157D-01 0.224D-01
 Coeff-Com: -0.343D-01-0.164D+00-0.563D-01 0.122D+01
 Coeff:     -0.102D-05 0.243D-05-0.819D-06-0.282D-04 0.138D-04 0.275D-04
 Coeff:      0.156D-03 0.659D-04-0.137D-02-0.460D-02 0.157D-01 0.224D-01
 Coeff:     -0.343D-01-0.164D+00-0.563D-01 0.122D+01
 Gap=     0.124 Goal=   None    Shift=    0.000
 RMSDP=1.74D-08 MaxDP=4.87D-06 DE= 1.02D-09 OVMax= 3.57D-06

 Cycle  19  Pass 1  IDiag  1:
 RMSU=  4.92D-09    CP:  5.66D-01  2.10D+00  1.56D+00  1.20D+00  1.90D+00
                    CP:  1.60D+00  1.38D+00  9.23D-01  1.18D+00  1.62D+00
                    CP:  1.67D+00  1.33D+00  1.83D+00  2.77D+00  2.71D+00
                    CP:  1.85D+00
 E= -4717.68446025074     Delta-E=       -0.000000001641 Rises=F Damp=F
 DIIS: error= 9.68D-08 at cycle  17 NSaved=  17.
 NSaved=17 IEnMin=17 EnMin= -4717.68446025074     IErMin=17 ErrMin= 9.68D-08
 ErrMax= 9.68D-08  0.00D+00 EMaxC= 1.00D-01 BMatC= 3.94D-13 BMatP= 7.62D-13
 IDIUse=1 WtCom= 1.00D+00 WtEn= 0.00D+00
 Coeff-Com: -0.147D-05-0.178D-04 0.402D-04 0.268D-04-0.130D-03-0.182D-03
 Coeff-Com:  0.129D-03 0.704D-03 0.195D-02 0.689D-03-0.232D-01-0.317D-02
 Coeff-Com:  0.132D+00 0.566D-01-0.568D+00 0.207D+00 0.120D+01
 Coeff:     -0.147D-05-0.178D-04 0.402D-04 0.268D-04-0.130D-03-0.182D-03
 Coeff:      0.129D-03 0.704D-03 0.195D-02 0.689D-03-0.232D-01-0.317D-02
 Coeff:      0.132D+00 0.566D-01-0.568D+00 0.207D+00 0.120D+01
 Gap=     0.124 Goal=   None    Shift=    0.000
 RMSDP=1.46D-08 MaxDP=2.44D-06 DE=-1.64D-09 OVMax= 3.28D-06

 Cycle  20  Pass 1  IDiag  1:
 RMSU=  5.28D-09    CP:  5.66D-01  2.10D+00  1.56D+00  1.20D+00  1.90D+00
                    CP:  1.60D+00  1.38D+00  9.23D-01  1.18D+00  1.62D+00
                    CP:  1.68D+00  1.34D+00  1.90D+00  3.00D+00  3.00D+00
                    CP:  2.90D+00  1.84D+00
 E= -4717.68446025094     Delta-E=       -0.000000000196 Rises=F Damp=F
 DIIS: error= 8.77D-08 at cycle  18 NSaved=  18.
 NSaved=18 IEnMin=18 EnMin= -4717.68446025094     IErMin=18 ErrMin= 8.77D-08
 ErrMax= 8.77D-08  0.00D+00 EMaxC= 1.00D-01 BMatC= 2.50D-13 BMatP= 3.94D-13
 IDIUse=1 WtCom= 1.00D+00 WtEn= 0.00D+00
 Coeff-Com: -0.184D-06-0.444D-05 0.935D-05 0.996D-05-0.301D-04-0.479D-04
 Coeff-Com:  0.148D-05 0.157D-03 0.649D-03 0.902D-03-0.767D-02-0.413D-02
 Coeff-Com:  0.340D-01 0.398D-01-0.112D+00-0.171D+00 0.267D+00 0.952D+00
 Coeff:     -0.184D-06-0.444D-05 0.935D-05 0.996D-05-0.301D-04-0.479D-04
 Coeff:      0.148D-05 0.157D-03 0.649D-03 0.902D-03-0.767D-02-0.413D-02
 Coeff:      0.340D-01 0.398D-01-0.112D+00-0.171D+00 0.267D+00 0.952D+00
 Gap=     0.124 Goal=   None    Shift=    0.000
 RMSDP=9.50D-09 MaxDP=1.23D-06 DE=-1.96D-10 OVMax= 2.00D-06

 Cycle  21  Pass 1  IDiag  1:
 RMSU=  5.42D-09    CP:  5.66D-01  2.10D+00  1.56D+00  1.20D+00  1.90D+00
                    CP:  1.60D+00  1.38D+00  9.23D-01  1.18D+00  1.62D+00
                    CP:  1.68D+00  1.34D+00  1.93D+00  3.00D+00  3.00D+00
                    CP:  3.00D+00  2.79D+00  1.87D+00
 E= -4717.68446025016     Delta-E=        0.000000000775 Rises=F Damp=F
 DIIS: error= 8.18D-08 at cycle  19 NSaved=  19.
 NSaved=19 IEnMin=18 EnMin= -4717.68446025094     IErMin=19 ErrMin= 8.18D-08
 ErrMax= 8.18D-08  0.00D+00 EMaxC= 1.00D-01 BMatC= 2.11D-13 BMatP= 2.50D-13
 IDIUse=1 WtCom= 1.00D+00 WtEn= 0.00D+00
 Coeff-Com:  0.123D-05 0.149D-04-0.336D-04-0.220D-04 0.110D-03 0.150D-03
 Coeff-Com: -0.110D-03-0.592D-03-0.162D-02-0.419D-03 0.187D-01 0.263D-02
 Coeff-Com: -0.108D+00-0.449D-01 0.465D+00-0.180D+00-0.963D+00 0.412D-01
 Coeff-Com:  0.177D+01
 Coeff:      0.123D-05 0.149D-04-0.336D-04-0.220D-04 0.110D-03 0.150D-03
 Coeff:     -0.110D-03-0.592D-03-0.162D-02-0.419D-03 0.187D-01 0.263D-02
 Coeff:     -0.108D+00-0.449D-01 0.465D+00-0.180D+00-0.963D+00 0.412D-01
 Coeff:      0.177D+01
 Gap=     0.124 Goal=   None    Shift=    0.000
 RMSDP=2.17D-08 MaxDP=3.74D-06 DE= 7.75D-10 OVMax= 4.11D-06

 Cycle  22  Pass 1  IDiag  1:
 RMSU=  1.10D-08    CP:  5.66D-01  2.10D+00  1.56D+00  1.20D+00  1.90D+00
                    CP:  1.60D+00  1.38D+00  9.23D-01  1.18D+00  1.62D+00
                    CP:  1.68D+00  1.34D+00  1.99D+00  3.00D+00  3.00D+00
                    CP:  3.00D+00  3.00D+00  3.00D+00  3.00D+00
 E= -4717.68446025116     Delta-E=       -0.000000000993 Rises=F Damp=F
 DIIS: error= 6.97D-08 at cycle  20 NSaved=  20.
 NSaved=20 IEnMin=20 EnMin= -4717.68446025116     IErMin=20 ErrMin= 6.97D-08
 ErrMax= 6.97D-08  0.00D+00 EMaxC= 1.00D-01 BMatC= 1.59D-13 BMatP= 2.11D-13
 IDIUse=1 WtCom= 1.00D+00 WtEn= 0.00D+00
 Large coefficients: NSaved= 20 BigCof=    0.00 CofMax=   10.00 Det=-8.81D-15
 Inversion failed.  Reducing to 19 matrices.
 Large coefficients: NSaved= 19 BigCof=    0.00 CofMax=   10.00 Det=-9.76D-15
 Inversion failed.  Reducing to 18 matrices.
 Coeff-Com: -0.437D-07-0.685D-06-0.184D-05 0.444D-05 0.258D-04-0.145D-04
 Coeff-Com: -0.231D-03-0.408D-03 0.285D-02 0.110D-02-0.156D-01-0.154D-01
 Coeff-Com:  0.764D-01 0.390D-01-0.254D+00-0.375D+00 0.649D-02 0.154D+01
 Coeff:     -0.437D-07-0.685D-06-0.184D-05 0.444D-05 0.258D-04-0.145D-04
 Coeff:     -0.231D-03-0.408D-03 0.285D-02 0.110D-02-0.156D-01-0.154D-01
 Coeff:      0.764D-01 0.390D-01-0.254D+00-0.375D+00 0.649D-02 0.154D+01
 Gap=     0.124 Goal=   None    Shift=    0.000
 RMSDP=2.10D-08 MaxDP=1.94D-06 DE=-9.93D-10 OVMax= 4.47D-06

 Cycle  23  Pass 1  IDiag  1:
 Restarting incremental Fock formation.
 E= -4717.68446032629     Delta-E=       -0.000000075132 Rises=F Damp=F
 DIIS: error= 4.84D-07 at cycle  21 NSaved=  19.
 NSaved=19 IEnMin=19 EnMin= -4717.68446032629     IErMin=18 ErrMin= 6.97D-08
 ErrMax= 4.84D-07  0.00D+00 EMaxC= 1.00D-01 BMatC= 3.22D-11 BMatP= 1.59D-13
 IDIUse=1 WtCom= 1.00D+00 WtEn= 0.00D+00
 Coeff-Com: -0.436D-07-0.695D-06-0.184D-05 0.448D-05 0.258D-04-0.146D-04
 Coeff-Com: -0.231D-03-0.408D-03 0.285D-02 0.110D-02-0.156D-01-0.155D-01
 Coeff-Com:  0.763D-01 0.391D-01-0.254D+00-0.376D+00 0.676D-02 0.153D+01
 Coeff-Com:  0.155D-02
 Coeff:     -0.436D-07-0.695D-06-0.184D-05 0.448D-05 0.258D-04-0.146D-04
 Coeff:     -0.231D-03-0.408D-03 0.285D-02 0.110D-02-0.156D-01-0.155D-01
 Coeff:      0.763D-01 0.391D-01-0.254D+00-0.376D+00 0.676D-02 0.153D+01
 Coeff:      0.155D-02
 Gap=     0.124 Goal=   None    Shift=    0.000
 RMSDP=3.63D-09 MaxDP=1.76D-06 DE=-7.51D-08 OVMax= 6.96D-09

 Cycle  24  Pass 1  IDiag  1:
 RMSU=  2.41D-09    CP:  1.00D+00
 E= -4717.68446032615     Delta-E=        0.000000000135 Rises=F Damp=F
 DIIS: error= 4.84D-07 at cycle  22 NSaved=  20.
 NSaved=20 IEnMin=19 EnMin= -4717.68446032629     IErMin=18 ErrMin= 6.97D-08
 ErrMax= 4.84D-07  0.00D+00 EMaxC= 1.00D-01 BMatC= 3.21D-11 BMatP= 1.59D-13
 IDIUse=1 WtCom= 1.00D+00 WtEn= 0.00D+00
 Large coefficients: NSaved= 20 BigCof=    0.00 CofMax=   10.00 Det=-4.41D-16
 Inversion failed.  Reducing to 19 matrices.
 Large coefficients: NSaved= 19 BigCof=    0.00 CofMax=   10.00 Det=-4.41D-16
 Inversion failed.  Reducing to 18 matrices.
 Large coefficients: NSaved= 18 BigCof=    0.00 CofMax=   10.00 Det=-4.41D-16
 Inversion failed.  Reducing to 17 matrices.
 Large coefficients: NSaved= 17 BigCof=    0.00 CofMax=   10.00 Det=-4.41D-16
 Inversion failed.  Reducing to 16 matrices.
 Large coefficients: NSaved= 16 BigCof=    0.00 CofMax=   10.00 Det=-4.41D-16
 Inversion failed.  Reducing to 15 matrices.
 Coeff-Com: -0.140D-04-0.774D-04 0.148D-04 0.140D-02-0.233D-03-0.109D-01
 Coeff-Com: -0.999D-02 0.556D-01 0.413D-01-0.212D+00-0.370D+00-0.413D-01
 Coeff-Com:  0.154D+01-0.125D+01 0.125D+01
 Coeff:     -0.140D-04-0.774D-04 0.148D-04 0.140D-02-0.233D-03-0.109D-01
 Coeff:     -0.999D-02 0.556D-01 0.413D-01-0.212D+00-0.370D+00-0.413D-01
 Coeff:      0.154D+01-0.125D+01 0.125D+01
 Gap=     0.124 Goal=   None    Shift=    0.000
 RMSDP=4.84D-09 MaxDP=2.32D-06 DE= 1.35D-10 OVMax= 4.59D-08

 Cycle  25  Pass 1  IDiag  1:
 RMSU=  9.00D-10    CP:  1.00D+00  2.31D+00
 E= -4717.68446032668     Delta-E=       -0.000000000528 Rises=F Damp=F
 DIIS: error= 4.83D-07 at cycle  23 NSaved=  16.
 NSaved=16 IEnMin=16 EnMin= -4717.68446032668     IErMin=13 ErrMin= 6.97D-08
 ErrMax= 4.83D-07  0.00D+00 EMaxC= 1.00D-01 BMatC= 3.19D-11 BMatP= 1.59D-13
 IDIUse=1 WtCom= 1.00D+00 WtEn= 0.00D+00
 Large coefficients: NSaved= 16 BigCof=    0.00 CofMax=   10.00 Det=-2.22D-16
 Inversion failed.  Reducing to 15 matrices.
 Coeff-Com: -0.524D-04-0.475D-05 0.105D-02-0.246D-03-0.883D-02-0.877D-02
 Coeff-Com:  0.474D-01 0.446D-01-0.200D+00-0.376D+00-0.635D-01 0.156D+01
 Coeff-Com: -0.807D+00 0.376D+00 0.435D+00
 Coeff:     -0.524D-04-0.475D-05 0.105D-02-0.246D-03-0.883D-02-0.877D-02
 Coeff:      0.474D-01 0.446D-01-0.200D+00-0.376D+00-0.635D-01 0.156D+01
 Coeff:     -0.807D+00 0.376D+00 0.435D+00
 Gap=     0.124 Goal=   None    Shift=    0.000
 RMSDP=1.21D-09 MaxDP=4.18D-07 DE=-5.28D-10 OVMax= 2.57D-08

 SCF Done:  E(RHF) =  -4717.68446033     A.U. after   25 cycles
            NFock= 25  Conv=0.12D-08     -V/T= 1.9995
 KE= 4.720170096323D+03 PE=-6.418951468287D+04 EE= 2.818463456243D+04
 Leave Link  502 at Mon Jan 30 18:11:28 2017, MaxMem=  2147483648 cpu:     18436.0
 (Enter /share/apps/gaussian/g09d01/nehalem/g09/l801.exe)
 ExpMin= 6.39D-02 ExpMax= 4.17D+03 ExpMxC= 6.27D+02 IAcc=3 IRadAn=         5 AccDes= 0.00D+00
 HarFok:  IExCor=  205 AccDes= 0.00D+00 IRadAn=         5 IDoV=-2 UseB2=F ITyADJ=14
 ICtDFT= 12500011 ScaDFX=  1.000000  1.000000  1.000000  1.000000
 Largest valence mixing into a core orbital is  1.17D-04
 Largest core mixing into a valence orbital is  8.27D-05
 Range of M.O.s used for correlation:   124  1174
 NBasis=  1174 NAE=   381 NBE=   381 NFC=   123 NFV=     0
 NROrb=   1051 NOA=   258 NOB=   258 NVA=   793 NVB=   793

 **** Warning!!: The largest alpha MO coefficient is  0.11259692D+03

 Leave Link  801 at Mon Jan 30 18:11:29 2017, MaxMem=  2147483648 cpu:        10.0
 (Enter /share/apps/gaussian/g09d01/nehalem/g09/l906.exe)
 FulOut=F Deriv=F AODrv=F NAtomX=   143
   MMem=           8  MDisk=         258 MDiskD=          34
  W3Min=   240807138 MinDsk=   174068927 NBas6D=        1177
 NBas2D=      694792    NTT=      693253    LW2=     2000000
    MDV=  2142329956 MDiskM=       25256 NBas2p=      385495
 Disk-based method using OVN memory for 33 occupieds at a time.
 Estimated scratch disk usage= 32404946655 words.
 IMap=   1   2   3   4   5   6   7   8   9  10  11  12  13  14  15  16  17  18  19  20
 IMap=  21  22  23  24  25  26  27  28  29  30  31  32  33  34  35  36  37  38  39  40
 IMap=  41  42  43  44  45  46  47  48  49  50  51  52  53  54  55  56  57  58  59  60
 IMap=  61  62  63  64  65  66  67  68  69  70  71  72  73  74  75  76  77  78  79  80
 IMap=  81  82  83  84  85  86  87  88  89  90  91  92  93  94  95  96  97  98  99 100
 IMap= 101 102 103 104 105 106 107 108 109 110 111 112 113 114 115 116 117 118 119 120
 IMap= 121 122 123 124 125 126 127 128 129 130 131 132 133 134 135 136 137 138 139 140
 IMap= 141 142 143 144 145 146 147 148 149 150 151 152 153 154 155 156 157 158 159 160
 IMap= 161 162 163 164 165 166 167 168 169 170 171 172 173 174 175 176 177 178 179 180
 IMap= 181 182 183 184 185 186 187 188 189 190 191 192 193 194 195 196 197 198 199 200
 IMap= 201 202 203 204 205 206 207 208 209 210 211 212 213 214 215 216 217 218 219 220
 IMap= 221 222 223 224 225 226 227 228 229 230 231 232 233 234 235 236 237 238 239 240
 IMap= 241 242 243 244 245 246 247 248 249 250 251 252 253 254 255 256 257 258
 Actual    scratch disk usage= 30343179999 words.
 JobTyp=1 Pass  1:  I=   1 to  33 NPSUse= 12 ParTrn=T ParDer=T DoDerP=F.
 JobTyp=1 Pass  2:  I=  34 to  66 NPSUse= 12 ParTrn=T ParDer=T DoDerP=F.
 JobTyp=1 Pass  3:  I=  67 to  98 NPSUse= 12 ParTrn=T ParDer=T DoDerP=F.
 JobTyp=1 Pass  4:  I=  99 to 130 NPSUse= 12 ParTrn=T ParDer=T DoDerP=F.
 JobTyp=1 Pass  5:  I= 131 to 162 NPSUse= 12 ParTrn=T ParDer=T DoDerP=F.
 JobTyp=1 Pass  6:  I= 163 to 194 NPSUse= 12 ParTrn=T ParDer=T DoDerP=F.
 JobTyp=1 Pass  7:  I= 195 to 226 NPSUse= 12 ParTrn=T ParDer=T DoDerP=F.
 JobTyp=1 Pass  8:  I= 227 to 258 NPSUse= 12 ParTrn=T ParDer=T DoDerP=F.
 Spin components of T(2) and E(2):
     alpha-alpha T2 =       0.8010666770D+00 E2=     -0.1660559791D+01
     alpha-beta  T2 =       0.3571806523D+01 E2=     -0.7979669725D+01
     beta-beta   T2 =       0.8010666770D+00 E2=     -0.1660559791D+01
 The integrals were generated   8 times.
 ANorm=    0.2484741411D+01
 E2 =    -0.1130078931D+02 EUMP2 =    -0.47289852496333D+04
 Leave Link  906 at Tue Jan 31 08:13:33 2017, MaxMem=  2147483648 cpu:    586522.5
 (Enter /share/apps/gaussian/g09d01/nehalem/g09/l601.exe)
 Copying SCF densities to generalized density rwf, IOpCl= 0 IROHF=0.

 **********************************************************************

            Population analysis using the SCF density.

 **********************************************************************

 Alpha  occ. eigenvalues --  -15.58030 -15.39762 -15.39754 -11.18885 -11.18885
 Alpha  occ. eigenvalues --  -11.18883 -11.18883 -11.18882 -11.18819 -11.18818
 Alpha  occ. eigenvalues --  -11.18818 -11.18817 -11.18817 -11.18794 -11.18793
 Alpha  occ. eigenvalues --  -11.18792 -11.18791 -11.18790 -11.18728 -11.18727
 Alpha  occ. eigenvalues --  -11.18726 -11.18725 -11.18724 -11.18650 -11.18646
 Alpha  occ. eigenvalues --  -11.18646 -11.18640 -11.18639 -11.18575 -11.18574
 Alpha  occ. eigenvalues --  -11.18572 -11.18572 -11.18571 -11.18566 -11.18565
 Alpha  occ. eigenvalues --  -11.18564 -11.18564 -11.18559 -11.18497 -11.18495
 Alpha  occ. eigenvalues --  -11.18488 -11.18488 -11.18483 -11.18479 -11.18473
 Alpha  occ. eigenvalues --  -11.18472 -11.18465 -11.18462 -11.18397 -11.18391
 Alpha  occ. eigenvalues --  -11.18390 -11.18384 -11.18382 -11.18380 -11.18378
 Alpha  occ. eigenvalues --  -11.18377 -11.18374 -11.18372 -11.18299 -11.18296
 Alpha  occ. eigenvalues --  -11.18295 -11.18292 -11.18289 -11.18200 -11.18199
 Alpha  occ. eigenvalues --  -11.18198 -11.18198 -11.18198 -11.18139 -11.18139
 Alpha  occ. eigenvalues --  -11.18138 -11.18138 -11.18137 -11.18120 -11.18116
 Alpha  occ. eigenvalues --  -11.18116 -11.18108 -11.18106 -11.18086 -11.18082
 Alpha  occ. eigenvalues --  -11.18082 -11.18073 -11.18072 -11.18062 -11.18061
 Alpha  occ. eigenvalues --  -11.18060 -11.18060 -11.18059 -11.18045 -11.18041
 Alpha  occ. eigenvalues --  -11.18038 -11.18031 -11.18029 -11.18028 -11.18018
 Alpha  occ. eigenvalues --  -11.18018 -11.18014 -11.18009 -11.18001 -11.18001
 Alpha  occ. eigenvalues --  -11.18000 -11.18000 -11.17999 -11.17979 -11.17970
 Alpha  occ. eigenvalues --  -11.17970 -11.17957 -11.17954 -11.17927 -11.17924
 Alpha  occ. eigenvalues --  -11.17924 -11.17922 -11.17921 -11.17906 -11.17898
 Alpha  occ. eigenvalues --  -11.17898 -11.17876 -11.17870 -11.17849 -11.17848
 Alpha  occ. eigenvalues --  -11.17832 -11.17832 -11.17826  -1.26281  -1.17696
 Alpha  occ. eigenvalues --   -1.16419  -1.16417  -1.16212  -1.14929  -1.14927
 Alpha  occ. eigenvalues --   -1.13424  -1.12572  -1.12558  -1.12177  -1.12176
 Alpha  occ. eigenvalues --   -1.11145  -1.11139  -1.09701  -1.08497  -1.08490
 Alpha  occ. eigenvalues --   -1.08473  -1.08472  -1.06449  -1.06441  -1.05178
 Alpha  occ. eigenvalues --   -1.05095  -1.05087  -1.04984  -1.04976  -1.04060
 Alpha  occ. eigenvalues --   -1.04039  -1.04038  -1.02330  -1.02329  -1.00795
 Alpha  occ. eigenvalues --   -1.00793  -0.99836  -0.99073  -0.99072  -0.98618
 Alpha  occ. eigenvalues --   -0.98614  -0.98090  -0.98089  -0.97056  -0.97056
 Alpha  occ. eigenvalues --   -0.96311  -0.96303  -0.94529  -0.94528  -0.94380
 Alpha  occ. eigenvalues --   -0.94377  -0.94096  -0.93536  -0.93535  -0.92709
 Alpha  occ. eigenvalues --   -0.92707  -0.91205  -0.91115  -0.91114  -0.89992
 Alpha  occ. eigenvalues --   -0.89701  -0.89700  -0.88371  -0.87609  -0.83833
 Alpha  occ. eigenvalues --   -0.83799  -0.83708  -0.82925  -0.82922  -0.82616
 Alpha  occ. eigenvalues --   -0.81636  -0.81484  -0.81483  -0.81168  -0.81168
 Alpha  occ. eigenvalues --   -0.79640  -0.79405  -0.79405  -0.78187  -0.78180
 Alpha  occ. eigenvalues --   -0.77776  -0.77776  -0.75424  -0.75423  -0.75167
 Alpha  occ. eigenvalues --   -0.75166  -0.74673  -0.74672  -0.74602  -0.74602
 Alpha  occ. eigenvalues --   -0.74554  -0.73356  -0.73356  -0.71993  -0.71991
 Alpha  occ. eigenvalues --   -0.68941  -0.68902  -0.68488  -0.68485  -0.67774
 Alpha  occ. eigenvalues --   -0.67502  -0.67502  -0.65851  -0.65848  -0.65847
 Alpha  occ. eigenvalues --   -0.64297  -0.64296  -0.64097  -0.64096  -0.63797
 Alpha  occ. eigenvalues --   -0.63784  -0.63539  -0.63119  -0.63109  -0.62794
 Alpha  occ. eigenvalues --   -0.62277  -0.62276  -0.60553  -0.60550  -0.60527
 Alpha  occ. eigenvalues --   -0.60113  -0.60112  -0.59560  -0.59560  -0.58491
 Alpha  occ. eigenvalues --   -0.58158  -0.58158  -0.57075  -0.57074  -0.56396
 Alpha  occ. eigenvalues --   -0.55971  -0.55966  -0.55509  -0.54918  -0.54918
 Alpha  occ. eigenvalues --   -0.54782  -0.54580  -0.54569  -0.54498  -0.54495
 Alpha  occ. eigenvalues --   -0.54152  -0.54151  -0.53824  -0.53823  -0.53633
 Alpha  occ. eigenvalues --   -0.53631  -0.53367  -0.53366  -0.53312  -0.53017
 Alpha  occ. eigenvalues --   -0.52596  -0.52565  -0.52323  -0.52316  -0.52157
 Alpha  occ. eigenvalues --   -0.51729  -0.51726  -0.51281  -0.51277  -0.51048
 Alpha  occ. eigenvalues --   -0.51048  -0.50682  -0.50681  -0.50656  -0.50655
 Alpha  occ. eigenvalues --   -0.50057  -0.50056  -0.50054  -0.49435  -0.49145
 Alpha  occ. eigenvalues --   -0.49016  -0.49011  -0.48599  -0.48582  -0.48567
 Alpha  occ. eigenvalues --   -0.48566  -0.47947  -0.47945  -0.47510  -0.47493
 Alpha  occ. eigenvalues --   -0.47367  -0.47365  -0.47328  -0.46039  -0.46038
 Alpha  occ. eigenvalues --   -0.45716  -0.45715  -0.45261  -0.45259  -0.44023
 Alpha  occ. eigenvalues --   -0.43984  -0.43258  -0.43235  -0.43095  -0.42987
 Alpha  occ. eigenvalues --   -0.42017  -0.42012  -0.41774  -0.41774  -0.41472
 Alpha  occ. eigenvalues --   -0.41008  -0.41007  -0.40684  -0.40672  -0.40621
 Alpha  occ. eigenvalues --   -0.40621  -0.39832  -0.39832  -0.39720  -0.38169
 Alpha  occ. eigenvalues --   -0.38168  -0.38012  -0.37954  -0.37843  -0.37829
 Alpha  occ. eigenvalues --   -0.37827  -0.36857  -0.36856  -0.36596  -0.36596
 Alpha  occ. eigenvalues --   -0.36294  -0.36293  -0.36186  -0.36181  -0.35021
 Alpha  occ. eigenvalues --   -0.34616  -0.32936  -0.32928  -0.31925  -0.31922
 Alpha  occ. eigenvalues --   -0.31378  -0.30473  -0.30472  -0.28519  -0.28519
 Alpha  occ. eigenvalues --   -0.27380  -0.27370  -0.26983  -0.26981  -0.25446
 Alpha  occ. eigenvalues --   -0.25445  -0.24703  -0.24693  -0.24051  -0.24050
 Alpha  occ. eigenvalues --   -0.24017  -0.23554  -0.23552  -0.21906  -0.21904
 Alpha  occ. eigenvalues --   -0.19895  -0.18649  -0.18647  -0.17576  -0.17574
 Alpha  occ. eigenvalues --   -0.17278  -0.15918  -0.15079  -0.15078  -0.12521
 Alpha  occ. eigenvalues --   -0.07624
 Alpha virt. eigenvalues --    0.04737   0.09326   0.12416   0.13355   0.13832
 Alpha virt. eigenvalues --    0.13834   0.14139   0.14141   0.15736   0.16601
 Alpha virt. eigenvalues --    0.16606   0.17846   0.17858   0.18134   0.18135
 Alpha virt. eigenvalues --    0.18603   0.18604   0.19597   0.19603   0.20466
 Alpha virt. eigenvalues --    0.21481   0.21482   0.22485   0.22496   0.23365
 Alpha virt. eigenvalues --    0.23366   0.24693   0.24709   0.25160   0.25161
 Alpha virt. eigenvalues --    0.28088   0.28094   0.28206   0.29152   0.29213
 Alpha virt. eigenvalues --    0.29511   0.29513   0.29806   0.29806   0.29828
 Alpha virt. eigenvalues --    0.29839   0.30336   0.31597   0.31706   0.31707
 Alpha virt. eigenvalues --    0.31860   0.31863   0.33137   0.33140   0.33153
 Alpha virt. eigenvalues --    0.33155   0.34996   0.35027   0.35184   0.35267
 Alpha virt. eigenvalues --    0.35324   0.35684   0.35687   0.36137   0.36141
 Alpha virt. eigenvalues --    0.37621   0.37670   0.38389   0.38395   0.39717
 Alpha virt. eigenvalues --    0.39763   0.39928   0.39935   0.40002   0.40710
 Alpha virt. eigenvalues --    0.40775   0.41369   0.41375   0.41750   0.41773
 Alpha virt. eigenvalues --    0.42212   0.42692   0.42813   0.42891   0.44486
 Alpha virt. eigenvalues --    0.44489   0.44886   0.45009   0.45012   0.45041
 Alpha virt. eigenvalues --    0.45058   0.45396   0.45404   0.46128   0.47401
 Alpha virt. eigenvalues --    0.47410   0.47998   0.48000   0.48363   0.48502
 Alpha virt. eigenvalues --    0.48508   0.48633   0.48633   0.48640   0.48694
 Alpha virt. eigenvalues --    0.48895   0.48949   0.49254   0.49258   0.49896
 Alpha virt. eigenvalues --    0.50034   0.50037   0.50158   0.50158   0.50585
 Alpha virt. eigenvalues --    0.50590   0.50641   0.50644   0.51607   0.51609
 Alpha virt. eigenvalues --    0.52092   0.52111   0.52842   0.53074   0.53086
 Alpha virt. eigenvalues --    0.53184   0.53186   0.53377   0.53380   0.53456
 Alpha virt. eigenvalues --    0.54025   0.54029   0.54551   0.54552   0.54841
 Alpha virt. eigenvalues --    0.54842   0.55659   0.55664   0.56201   0.56218
 Alpha virt. eigenvalues --    0.57560   0.57724   0.57728   0.57869   0.57899
 Alpha virt. eigenvalues --    0.58505   0.58507   0.59231   0.59489   0.59491
 Alpha virt. eigenvalues --    0.60062   0.60456   0.60456   0.60590   0.60592
 Alpha virt. eigenvalues --    0.60946   0.61180   0.61699   0.61700   0.61732
 Alpha virt. eigenvalues --    0.61745   0.63132   0.63135   0.63698   0.64299
 Alpha virt. eigenvalues --    0.64310   0.64356   0.65166   0.65549   0.65596
 Alpha virt. eigenvalues --    0.65597   0.66747   0.66762   0.67198   0.67542
 Alpha virt. eigenvalues --    0.67543   0.68149   0.68153   0.68164   0.70784
 Alpha virt. eigenvalues --    0.71153   0.71237   0.71238   0.72045   0.72065
 Alpha virt. eigenvalues --    0.72303   0.72916   0.72941   0.73031   0.73034
 Alpha virt. eigenvalues --    0.73459   0.73468   0.74625   0.74626   0.75054
 Alpha virt. eigenvalues --    0.77595   0.77598   0.77636   0.77642   0.78280
 Alpha virt. eigenvalues --    0.78282   0.78687   0.78688   0.78873   0.79460
 Alpha virt. eigenvalues --    0.79503   0.79510   0.79541   0.79542   0.79744
 Alpha virt. eigenvalues --    0.79746   0.79802   0.79832   0.80157   0.80232
 Alpha virt. eigenvalues --    0.80412   0.80774   0.80929   0.80931   0.81421
 Alpha virt. eigenvalues --    0.81426   0.81631   0.81638   0.82009   0.82011
 Alpha virt. eigenvalues --    0.82191   0.82391   0.82394   0.82530   0.82543
 Alpha virt. eigenvalues --    0.82574   0.82587   0.83049   0.83060   0.83104
 Alpha virt. eigenvalues --    0.83448   0.83450   0.83574   0.83593   0.83614
[...]
 ErrMax= 1.01D-06  0.00D+00 EMaxC= 1.00D-01 BMatC= 3.01D-11 BMatP= 2.09D-09
 IDIUse=1 WtCom= 1.00D+00 WtEn= 0.00D+00
 Coeff-Com: -0.380D-05 0.261D-04 0.127D-03 0.527D-05-0.384D-02 0.458D-01
 Coeff-Com: -0.247D+00-0.116D+00 0.132D+01
 Coeff:     -0.380D-05 0.261D-04 0.127D-03 0.527D-05-0.384D-02 0.458D-01
 Coeff:     -0.247D+00-0.116D+00 0.132D+01
 Gap=     0.399 Goal=   None    Shift=    0.000
 RMSDP=1.21D-06 MaxDP=1.46D-05 DE=-1.98D-09 OVMax= 3.76D-06

 Cycle  10  Pass 1  IDiag  1:
 E= -163.279244872055     Delta-E=       -0.000000000069 Rises=F Damp=F
 DIIS: error= 1.39D-07 at cycle  10 NSaved=  10.
 NSaved=10 IEnMin=10 EnMin= -163.279244872055     IErMin=10 ErrMin= 1.39D-07
 ErrMax= 1.39D-07  0.00D+00 EMaxC= 1.00D-01 BMatC= 6.18D-13 BMatP= 3.01D-11
 IDIUse=1 WtCom= 1.00D+00 WtEn= 0.00D+00
 Coeff-Com: -0.267D-06 0.346D-05 0.141D-04 0.495D-04 0.226D-03-0.736D-02
 Coeff-Com:  0.505D-01 0.174D-01-0.361D+00 0.130D+01
 Coeff:     -0.267D-06 0.346D-05 0.141D-04 0.495D-04 0.226D-03-0.736D-02
 Coeff:      0.505D-01 0.174D-01-0.361D+00 0.130D+01
 Gap=     0.399 Goal=   None    Shift=    0.000
 RMSDP=1.68D-07 MaxDP=1.87D-06 DE=-6.89D-11 OVMax= 5.89D-07

 Cycle  11  Pass 1  IDiag  1:
 E= -163.279244872057     Delta-E=       -0.000000000002 Rises=F Damp=F
 DIIS: error= 1.08D-08 at cycle  11 NSaved=  11.
 NSaved=11 IEnMin=11 EnMin= -163.279244872057     IErMin=11 ErrMin= 1.08D-08
 ErrMax= 1.08D-08  0.00D+00 EMaxC= 1.00D-01 BMatC= 3.95D-15 BMatP= 6.18D-13
 IDIUse=1 WtCom= 1.00D+00 WtEn= 0.00D+00
 Coeff-Com:  0.108D-06-0.994D-06-0.498D-05-0.118D-04-0.813D-06 0.110D-02
 Coeff-Com: -0.850D-02-0.243D-02 0.673D-01-0.309D+00 0.125D+01
 Coeff:      0.108D-06-0.994D-06-0.498D-05-0.118D-04-0.813D-06 0.110D-02
 Coeff:     -0.850D-02-0.243D-02 0.673D-01-0.309D+00 0.125D+01
 Gap=     0.399 Goal=   None    Shift=    0.000
 RMSDP=7.88D-08 MaxDP=9.30D-07 DE=-1.96D-12 OVMax= 4.36D-08

 Cycle  12  Pass 1  IDiag  1:
 E= -163.279244872057     Delta-E=        0.000000000000 Rises=F Damp=F
 DIIS: error= 1.22D-09 at cycle  12 NSaved=  12.
 NSaved=12 IEnMin=11 EnMin= -163.279244872057     IErMin=12 ErrMin= 1.22D-09
 ErrMax= 1.22D-09  0.00D+00 EMaxC= 1.00D-01 BMatC= 2.91D-17 BMatP= 3.95D-15
 IDIUse=1 WtCom= 1.00D+00 WtEn= 0.00D+00
 Coeff-Com: -0.223D-07 0.180D-06 0.897D-06 0.175D-05-0.487D-05-0.101D-03
 Coeff-Com:  0.904D-03 0.241D-03-0.744D-02 0.384D-01-0.205D+00 0.117D+01
 Coeff:     -0.223D-07 0.180D-06 0.897D-06 0.175D-05-0.487D-05-0.101D-03
 Coeff:      0.904D-03 0.241D-03-0.744D-02 0.384D-01-0.205D+00 0.117D+01
 Gap=     0.399 Goal=   None    Shift=    0.000
 RMSDP=3.46D-09 MaxDP=3.83D-08 DE= 3.13D-13 OVMax= 3.98D-09

 SCF Done:  E(RHF) =  -163.279244872     A.U. after   12 cycles
            NFock= 12  Conv=0.35D-08     -V/T= 2.0037
 KE= 1.626784282441D+02 PE=-4.981770679484D+02 EE= 1.174682323016D+02
 Leave Link  502 at Wed Feb  1 11:31:32 2017, MaxMem=  2147483648 cpu:         2.3
 (Enter /share/apps/gaussian/g09d01/nehalem/g09/l801.exe)
 ExpMin= 6.39D-02 ExpMax= 4.17D+03 ExpMxC= 6.27D+02 IAcc=3 IRadAn=         5 AccDes= 0.00D+00
 HarFok:  IExCor=  205 AccDes= 0.00D+00 IRadAn=         5 IDoV=-2 UseB2=F ITyADJ=14
 ICtDFT= 12500011 ScaDFX=  1.000000  1.000000  1.000000  1.000000
 Largest valence mixing into a core orbital is  1.31D-04
 Largest core mixing into a valence orbital is  7.01D-05
 Range of M.O.s used for correlation:     4    54
 NBasis=    54 NAE=    11 NBE=    11 NFC=     3 NFV=     0
 NROrb=     51 NOA=     8 NOB=     8 NVA=    43 NVB=    43

 **** Warning!!: The largest alpha MO coefficient is  0.14629229D+03

 Leave Link  801 at Wed Feb  1 11:31:32 2017, MaxMem=  2147483648 cpu:         1.0
 (Enter /share/apps/gaussian/g09d01/nehalem/g09/l906.exe)
 FulOut=F Deriv=F AODrv=F NAtomX=     3
   MMem=       90564  MDisk=           8 MDiskD=           8
  W3Min=       19608 MinDsk=       92437 NBas6D=          57
 NBas2D=        1752    NTT=        1653    LW2=     2000000
    MDV=  2147462347 MDiskM=      522773 NBas2p=        1751
 Fully in-core method, ICMem=     9179286.
 IMap=   1   2   3   4   5   6   7   8
 JobTyp=1 Pass  1 fully in-core, NPsUse= 12.
 Compute canonical integrals.
 FoFCou: FMM=F IPFlag=           0 FMFlag=           0 FMFlg1=           0
         NFxFlg=           0 DoJE=F BraDBF=F KetDBF=F FulRan=T
         wScrn=  0.000000 ICntrl=     600 IOpCl=  1 I1Cent=           0 NGrid=           0
         NMat0=    1 NMatS0=   1752 NMatT0=    0 NMatD0=    1 NMtDS0=    0 NMtDT0=    0
 Symmetry not used in FoFCou.
 Spin components of T(2) and E(2):
     alpha-alpha T2 =       0.3101564806D-01 E2=     -0.7677522129D-01
     alpha-beta  T2 =       0.1500820156D+00 E2=     -0.3794244496D+00
     beta-beta   T2 =       0.3101564806D-01 E2=     -0.7677522129D-01
 The integrals were generated   1 times.
 ANorm=    0.1100960177D+01
 E2 =    -0.5329748922D+00 EUMP2 =    -0.16381221976422D+03
 Leave Link  906 at Wed Feb  1 11:31:33 2017, MaxMem=  2147483648 cpu:         3.5
 (Enter /share/apps/gaussian/g09d01/nehalem/g09/l601.exe)
 Copying SCF densities to generalized density rwf, IOpCl= 0 IROHF=0.

 **********************************************************************

            Population analysis using the SCF density.

 **********************************************************************

 Alpha  occ. eigenvalues --  -15.53303 -15.35459 -15.35452  -1.21367  -0.99287
 Alpha  occ. eigenvalues --   -0.42797  -0.41954  -0.41954  -0.35440  -0.10548
 Alpha  occ. eigenvalues --   -0.10548
 Alpha virt. eigenvalues --    0.29322   0.30569   0.32339   0.32339   0.36606
 Alpha virt. eigenvalues --    0.40164   0.40164   0.43504   0.43504   0.45775
 Alpha virt. eigenvalues --    0.50664   0.50664   0.58584   0.63931   0.76377
 Alpha virt. eigenvalues --    1.08246   1.27002   1.31753   1.31753   1.38741
 Alpha virt. eigenvalues --    1.38741   1.44846   1.44846   1.46781   1.48960
 Alpha virt. eigenvalues --    1.82243   1.92568   1.92568   1.94415   1.94415
 Alpha virt. eigenvalues --    1.97382   2.04214   2.26445   2.26445   2.58355
 Alpha virt. eigenvalues --    2.58355   2.69215   2.69215   3.16006   3.43127
 Alpha virt. eigenvalues --    3.53648   3.53648   4.04250
          Condensed to atoms (all electrons):
 Mulliken charges:
               1
     1  H    0.000000
     2  H    0.000000
     3  H    0.000000
     4  H    0.000000
     5  H    0.000000
     6  H    0.000000
     7  H    0.000000
     8  H    0.000000
     9  H    0.000000
    10  H    0.000000
    11  C    0.000000
    12  C    0.000000
    13  C    0.000000
    14  C    0.000000
    15  C    0.000000
    16  C    0.000000
    17  C    0.000000
    18  C    0.000000
    19  C    0.000000
    20  C    0.000000
    21  C    0.000000
    22  C    0.000000
    23  C    0.000000
    24  C    0.000000
    25  C    0.000000
    26  C    0.000000
    27  C    0.000000
    28  C    0.000000
    29  C    0.000000
    30  C    0.000000
    31  C    0.000000
    32  C    0.000000
    33  C    0.000000
    34  C    0.000000
    35  C    0.000000
    36  C    0.000000
    37  C    0.000000
    38  C    0.000000
    39  C    0.000000
    40  C    0.000000
    41  C    0.000000
    42  C    0.000000
    43  C    0.000000
    44  C    0.000000
    45  C    0.000000
    46  C    0.000000
    47  C    0.000000
    48  C    0.000000
    49  C    0.000000
    50  C    0.000000
    51  C    0.000000
    52  C    0.000000
    53  C    0.000000
    54  C    0.000000
    55  C    0.000000
    56  C    0.000000
    57  C    0.000000
    58  C    0.000000
    59  C    0.000000
    60  C    0.000000
    61  C    0.000000
    62  C    0.000000
    63  C    0.000000
    64  C    0.000000
    65  C    0.000000
    66  C    0.000000
    67  C    0.000000
    68  C    0.000000
    69  C    0.000000
    70  C    0.000000
    71  C    0.000000
    72  C    0.000000
    73  C    0.000000
    74  C    0.000000
    75  C    0.000000
    76  C    0.000000
    77  C    0.000000
    78  C    0.000000
    79  C    0.000000
    80  C    0.000000
    81  C    0.000000
    82  C    0.000000
    83  C    0.000000
    84  C    0.000000
    85  C    0.000000
    86  C    0.000000
    87  C    0.000000
    88  C    0.000000
    89  C    0.000000
    90  C    0.000000
    91  C    0.000000
    92  C    0.000000
    93  C    0.000000
    94  C    0.000000
    95  C    0.000000
    96  C    0.000000
    97  C    0.000000
    98  C    0.000000
    99  C    0.000000
   100  C    0.000000
   101  C    0.000000
   102  C    0.000000
   103  C    0.000000
   104  C    0.000000
   105  C    0.000000
   106  C    0.000000
   107  C    0.000000
   108  C    0.000000
   109  C    0.000000
   110  C    0.000000
   111  C    0.000000
   112  C    0.000000
   113  C    0.000000
   114  C    0.000000
   115  C    0.000000
   116  C    0.000000
   117  C    0.000000
   118  C    0.000000
   119  C    0.000000
   120  C    0.000000
   121  C    0.000000
   122  C    0.000000
   123  C    0.000000
   124  C    0.000000
   125  C    0.000000
   126  C    0.000000
   127  C    0.000000
   128  C    0.000000
   129  C    0.000000
   130  C    0.000000
   131  H    0.000000
   132  H    0.000000
   133  H    0.000000
   134  H    0.000000
   135  H    0.000000
   136  H    0.000000
   137  H    0.000000
   138  H    0.000000
   139  H    0.000000
   140  H    0.000000
   141  N   -0.918714
   142  N    0.837594
   143  N   -0.918879
 Sum of Mulliken charges =  -1.00000
 Mulliken charges with hydrogens summed into heavy atoms:
               1
    11  C    0.000000
    12  C    0.000000
    13  C    0.000000
    14  C    0.000000
    15  C    0.000000
    16  C    0.000000
    17  C    0.000000
    18  C    0.000000
    19  C    0.000000
    20  C    0.000000
    21  C    0.000000
    22  C    0.000000
    23  C    0.000000
    24  C    0.000000
    25  C    0.000000
    26  C    0.000000
    27  C    0.000000
    28  C    0.000000
    29  C    0.000000
    30  C    0.000000
    31  C    0.000000
    32  C    0.000000
    33  C    0.000000
    34  C    0.000000
    35  C    0.000000
    36  C    0.000000
    37  C    0.000000
    38  C    0.000000
    39  C    0.000000
    40  C    0.000000
    41  C    0.000000
    42  C    0.000000
    43  C    0.000000
    44  C    0.000000
    45  C    0.000000
    46  C    0.000000
    47  C    0.000000
    48  C    0.000000
    49  C    0.000000
    50  C    0.000000
    51  C    0.000000
    52  C    0.000000
    53  C    0.000000
    54  C    0.000000
    55  C    0.000000
    56  C    0.000000
    57  C    0.000000
    58  C    0.000000
    59  C    0.000000
    60  C    0.000000
    61  C    0.000000
    62  C    0.000000
    63  C    0.000000
    64  C    0.000000
    65  C    0.000000
    66  C    0.000000
    67  C    0.000000
    68  C    0.000000
    69  C    0.000000
    70  C    0.000000
    71  C    0.000000
    72  C    0.000000
    73  C    0.000000
    74  C    0.000000
    75  C    0.000000
    76  C    0.000000
    77  C    0.000000
    78  C    0.000000
    79  C    0.000000
    80  C    0.000000
    81  C    0.000000
    82  C    0.000000
    83  C    0.000000
    84  C    0.000000
    85  C    0.000000
    86  C    0.000000
    87  C    0.000000
    88  C    0.000000
    89  C    0.000000
    90  C    0.000000
    91  C    0.000000
    92  C    0.000000
    93  C    0.000000
    94  C    0.000000
    95  C    0.000000
    96  C    0.000000
    97  C    0.000000
    98  C    0.000000
    99  C    0.000000
   100  C    0.000000
   101  C    0.000000
   102  C    0.000000
   103  C    0.000000
   104  C    0.000000
   105  C    0.000000
   106  C    0.000000
   107  C    0.000000
   108  C    0.000000
   109  C    0.000000
   110  C    0.000000
   111  C    0.000000
   112  C    0.000000
   113  C    0.000000
   114  C    0.000000
   115  C    0.000000
   116  C    0.000000
   117  C    0.000000
   118  C    0.000000
   119  C    0.000000
   120  C    0.000000
   121  C    0.000000
   122  C    0.000000
   123  C    0.000000
   124  C    0.000000
   125  C    0.000000
   126  C    0.000000
   127  C    0.000000
   128  C    0.000000
   129  C    0.000000
   130  C    0.000000
   141  N   -0.918714
   142  N    0.837594
   143  N   -0.918879
         Mulliken charges condensed to fragments:
      1      0.000000
      2     -1.000000
 Electronic spatial extent (au):  <R**2>=            124.1576
 Charge=             -1.0000 electrons
 Dipole moment (field-independent basis, Debye):
    X=             -0.0983    Y=              0.0013    Z=             -0.5042  Tot=              0.5137
 Quadrupole moment (field-independent basis, Debye-Ang):
   XX=            -19.8101   YY=            -19.8083   ZZ=            -31.9622
   XY=              0.0000   XZ=             -0.0089   YZ=             -0.0487
 Traceless Quadrupole moment (field-independent basis, Debye-Ang):
   XX=              4.0501   YY=              4.0519   ZZ=             -8.1021
   XY=              0.0000   XZ=             -0.0089   YZ=             -0.0487
 Octapole moment (field-independent basis, Debye-Ang**2):
  XXX=             -1.2208  YYY=              0.0157  ZZZ=            -10.0443  XYY=             -0.4069
  XXY=              0.0052  XXZ=             -2.0777  XZZ=             -0.6569  YZZ=             -0.0019
  YYZ=             -2.0776  XYZ=             -0.0010
 Hexadecapole moment (field-independent basis, Debye-Ang**3):
 XXXX=            -22.9628 YYYY=            -22.9150 ZZZZ=           -170.6099 XXXY=              0.0004
 XXXZ=             -0.1194 YYYX=              0.0004 YYYZ=             -0.2869 ZZZX=             -0.1976
 ZZZY=             -0.2977 XXYY=             -7.6463 XXZZ=            -31.7122 YYZZ=            -31.6991
 XXYZ=             -0.0957 YYXZ=             -0.0398 ZZXY=              0.0000
 N-N= 5.475116253063D+01 E-N=-4.981770679490D+02  KE= 1.626784282441D+02
 Leave Link  601 at Wed Feb  1 11:31:33 2017, MaxMem=  2147483648 cpu:         0.4
 (Enter /share/apps/gaussian/g09d01/nehalem/g09/l122.exe)
 CPIOFr:  IOpCl= 0 IRwI=-1 IRwCP=  731 ICalc=  4 LCPTot=     2181321 Len1MO=     5540400 IndFrg=    29883321
 Restoring MOs from calculation   1 to rwf.
 CPIOFr:  IOpCl= 0 IRwI=-2 IRwCP=  731 ICalc=  0 LCPTot=     2181321 Len1MO=     5540400 IndFrg=     7721721
 Counterpoise corrected energy =   -4728.954948517364
                   BSSE energy =       0.030301115941
               sum of monomers =   -4728.903457473251
           complexation energy =     -51.33 kcal/mole (raw)
           complexation energy =     -32.31 kcal/mole (corrected)
 Leave Link  122 at Wed Feb  1 11:31:33 2017, MaxMem=  2147483648 cpu:         5.1
 (Enter /share/apps/gaussian/g09d01/nehalem/g09/l9999.exe)
 1\1\GINC-COMPUTE-1-10\SP\RMP2-FC\Gen\C120H20N3\ROOT\01-Feb-2017\0\\#P 
 maxdisk=250gb mp2 Gen integral=ultrafine cachesize=131072 symmetry=non
 e counterpoise=2\\N3- at t555 eint relaxed\\-1,1\H,0,3.785186,0.057583
 ,7.687268\H,0,-1.197253,-3.564558,7.686949\H,0,1.129869,3.59986,7.6867
 94\H,0,-1.087967,3.599774,7.686847\H,0,-2.990098,-2.259135,7.687238\H,
 0,1.239136,-3.564286,7.687094\H,0,3.032346,-2.259479,7.687369\H,0,-3.0
 58849,2.167112,7.686968\H,0,3.100089,2.166491,7.687145\H,0,-3.743505,0
 .057919,7.687052\C,0,3.097864,-1.718048,6.748757\C,0,3.519898,-0.41903
 9,6.748718\C,0,2.60505,2.395826,6.748658\C,0,1.500674,3.199169,6.74852
 5\C,0,-1.458757,3.198957,6.748626\C,0,-2.563244,2.396065,6.748701\C,0,
 -3.477327,-0.418676,6.748754\C,0,-3.055118,-1.717338,6.748814\C,0,-0.6
 61897,-3.458755,6.748534\C,0,0.70391,-3.458679,6.748573\C,0,0.734356,3
 .379905,5.541748\C,0,-0.692351,3.380053,5.541676\C,0,-2.972023,1.72288
 5,5.541769\C,0,-3.412592,0.365989,5.541847\C,0,-2.541987,-2.314742,5.5
 42022\C,0,-1.388039,-3.153999,5.542059\C,0,1.430478,-3.154463,5.542227
 \C,0,2.584739,-2.315275,5.542335\C,0,3.455198,0.365608,5.542256\C,0,3.
 014248,1.722751,5.542104\C,0,2.985019,-1.718537,4.313823\C,0,3.428066,
 -0.352511,4.313724\C,0,2.571558,2.288546,4.313697\C,0,1.409158,3.13194
 ,4.313424\C,0,-1.367609,3.13364,4.313511\C,0,-2.529205,2.289027,4.3135
 19\C,0,-3.386077,-0.352389,4.31355\C,0,-2.943399,-1.718665,4.313752\C,
 0,-0.696579,-3.350039,4.313559\C,0,0.739522,-3.351145,4.313718\C,0,0.7
 27515,3.334991,3.080127\C,0,-0.686511,3.337841,3.08001\C,0,-2.933253,1
 .703844,3.080093\C,0,-3.368585,0.358538,3.080183\C,0,-2.513787,-2.2853
 55,3.080181\C,0,-1.367777,-3.114208,3.08029\C,0,1.411619,-3.11787,3.08
 0266\C,0,2.555567,-2.285629,3.080337\C,0,3.412374,0.358655,3.08032\C,0
 ,2.978001,1.704817,3.080173\C,0,2.978495,-1.703188,1.84276\C,0,3.41115
 3,-0.361408,1.842595\C,0,2.557161,2.288693,1.842488\C,0,1.412374,3.111
 545,1.84205\C,0,-1.372256,3.118051,1.841979\C,0,-2.511689,2.287827,1.8
 4191\C,0,-3.368626,-0.361839,1.841985\C,0,-2.939176,-1.704653,1.842356
 \C,0,-0.68232,-3.335237,1.84241\C,0,0.72743,-3.341083,1.842715\C,0,0.7
 32725,3.34708,0.61008\C,0,-0.69237,3.351075,0.610187\C,0,1.414669,-3.1
 30911,0.610395\C,0,2.566601,-2.292421,0.610373\C,0,3.424761,0.357589,0
 .610253\C,0,2.98861,1.714092,0.610378\C,0,-2.943872,1.713301,0.610127\
 C,0,-3.382141,0.357169,0.610075\C,0,-2.526147,-2.292651,0.610346\C,0,-
 1.370616,-3.126521,0.61018\C,0,2.986296,-1.713524,-0.614637\C,0,3.4244
 79,-0.3573,-0.614516\C,0,2.568486,2.292928,-0.614799\C,0,1.412765,3.12
 6615,-0.614512\C,0,-1.37285,3.131267,-0.614797\C,0,-2.524714,2.292622,
 -0.614747\C,0,-3.383067,-0.357786,-0.61457\C,0,-2.947098,-1.714411,-0.
 6148\C,0,-0.690719,-3.347384,-0.614467\C,0,0.734443,-3.351552,-0.61469
 \C,0,0.724378,3.33589,-1.84662\C,0,-0.685355,3.341404,-1.846926\C,0,-2
 .936625,1.703099,-1.84698\C,0,-3.369484,0.361473,-1.84681\C,0,-2.51538
 1,-2.289011,-1.846649\C,0,-1.370748,-3.112275,-1.846232\C,0,1.414409,-
 3.11849,-1.846155\C,0,2.554171,-2.288215,-1.846093\C,0,3.411515,0.3619
 18,-1.846143\C,0,2.98149,1.704778,-1.846505\C,0,2.975434,-1.70394,-3.0
 84486\C,0,3.411106,-0.358449,-3.084561\C,0,2.555814,2.285436,-3.084627
 \C,0,1.409868,3.114807,-3.084773\C,0,-1.369601,3.118009,-3.084877\C,0,
 -2.513714,2.285677,-3.084951\C,0,-3.370797,-0.358621,-3.08488\C,0,-2.9
 36078,-1.704886,-3.084703\C,0,-0.68584,-3.335593,-3.084549\C,0,0.72847
 1,-3.337995,-3.08443\C,0,1.409602,-3.133802,-4.318042\C,0,2.571309,-2.
 289106,-4.318046\C,0,3.428471,0.352514,-4.318074\C,0,2.985613,1.718862
 ,-4.318268\C,0,0.738662,3.350631,-4.318126\C,0,-0.697562,3.351564,-4.3
 18315\C,0,-2.943355,1.718686,-4.318419\C,0,-3.386551,0.352568,-4.31831
 5\C,0,-2.529866,-2.288812,-4.318251\C,0,-1.367475,-3.132441,-4.317974\
 C,0,3.014089,-1.722814,-5.546321\C,0,3.454752,-0.365945,-5.546393\C,0,
 2.583956,2.314963,-5.546612\C,0,1.430145,3.154244,-5.546674\C,0,-1.388
 567,3.154423,-5.546937\C,0,-2.542671,2.31534,-5.547044\C,0,-3.413349,-
 0.365691,-5.546917\C,0,-2.972413,-1.722688,-5.546752\C,0,-0.692495,-3.
 380157,-5.546325\C,0,0.734193,-3.380146,-5.546246\C,0,0.703866,3.45894
 2,-6.753182\C,0,-0.661896,3.458833,-6.753301\C,0,-3.055983,1.718044,-6
 .753494\C,0,-3.47802,0.419095,-6.753418\C,0,-2.563261,-2.39595,-6.7533
 01\C,0,-1.458882,-3.199253,-6.753096\C,0,1.500703,-3.198971,-6.753145\
 C,0,2.60518,-2.39604,-6.753202\C,0,3.519367,0.41884,-6.753266\C,0,3.09
 7244,1.717525,-6.753378\H,0,1.239275,3.565015,-7.691537\H,0,-1.197125,
 3.564677,-7.691786\H,0,-2.990764,2.259602,-7.692047\H,0,-3.74365,-0.05
 7475,-7.691897\H,0,-3.058388,-2.166748,-7.691768\H,0,-1.088158,-3.6000
 85,-7.691339\H,0,1.130016,-3.599878,-7.691367\H,0,3.100833,-2.167184,-
 7.69147\H,0,3.785654,-0.057718,-7.691556\H,0,3.032383,2.259358,-7.6917
 88\N,0,0.020615,-0.005052,-1.079111\N,0,0.020707,-0.000237,0.104832\N,
 0,0.02033,0.0045,1.288827\\Version=ES64L-G09RevD.01\HF=-163.2792449\MP
 2=-163.8122198\RMSD=3.460e-09\PG=Unknown\\@


 VIRTUE IS LEARNED AT YOUR MOTHER'S KNEE,
 VICES ARE PICKED UP AT SOME OTHER JOINT.
 Job cpu time:      19 days  5 hours  0 minutes  4.0 seconds.
 File lengths (MBytes):  RWF= 238884 Int=      0 D2E=      0 Chk=    293 Scr=      1
 Normal termination of Gaussian 09 at Wed Feb  1 11:31:52 2017.
